# vtk DataFile Version 1.0
Texture map for animating vectors (map 1/16)vec
ASCII

DATASET STRUCTURED_POINTS
DIMENSIONS 16 1 1
ASPECT_RATIO 1.0 1.0 1.0
ORIGIN 0.0 0.0 0.0
 
POINT_DATA 16
COLOR_SCALARS texture 2
1.0 0.0 
1.0 0.0
1.0 0.25
1.0 0.25
 
1.0 0.375
1.0 0.375
1.0 0.5
1.0 0.5

1.0 0.625
1.0 0.625
1.0 0.75
1.0 0.75

1.0 0.875
1.0 0.875
1.0 1.0
1.0 1.0

