# vtk DataFile Version 1.0
Plastic blow molding of car bumper
ASCII

DATASET UNSTRUCTURED_GRID
POINTS 687 float
  5 7 10
  5 7 10
  5 8 11.25
  5 8.25 11
  5 8 10
  5 7 11.25
  5 7.5 13
  5 8 12.5
  5 7 10.3125
  5 7 10.625
  5 7 10.9375
  5 7.38766 11.25
  5 7.6459198 11.25
  5 7.8005199 11.25
  5 7.9087801 11.25
  5 8.0175505 11.158
  5 8.0732203 11.0732
  5 8.15798 11.0176
  5 8.25 10.1644
  5 8.25 10.3763
  5 8.25 10.5485
  5 8.25 10.6871
  5 8.25 10.8026
  5 8.25 10.9045
  5 7.7432399 10
  5 7.41786 10
  5 7 11.6875
  5 7 12.125
  5 7 12.5625
  5 7.3092599 13
  5 7.6840501 12.9649
  5 7.85355 12.8536
  5 7.96489 12.684
  5 8 12.3065
  5 8 12.1233
  5 8 11.9567
  5 8 11.8086
  5 8 11.6771
  5 8 11.5591
  5 8 11.4509
  5 8 11.3489
  5 7.9320502 11.0425
  5 7.8073401 11.0245
  5 7.6785898 10.99
  5 7.51824 10.9746
  5 7.32515 10.9611
  5 8.0108604 10.2002
  5 8.0376902 10.3933
  5 8.0632296 10.5667
  5 8.0946903 10.7162
  5 8.1324196 10.8231
  5 8.1471205 10.922
  5 7.39469 10.6822
  5 7.6590099 10.6508
  5 7.8705001 10.6089
  5 7.9330802 10.788
  5 7.9341202 10.9257
  5 7.7282 10.8379
  5 7.8232198 10.9294
  5 7.54704 10.8316
  5 8.04809 10.9431
  5 8.0378599 10.8514
  5 7.4421802 10.3424
  5 7.7557302 10.2431
  5 7.8266401 10.4299
  5 7.6426101 10.4744
  5 7.9134698 11.1466
  5 7.7954702 11.136
  5 7.6605301 11.123
  5 7.52214 11.1159
  5 7.44943 11.7066
  5 7.6807499 11.6735
  5 7.8474498 11.667
  5 7.4002199 12.1904
  5 7.64784 12.1371
  5 7.8329401 12.1302
  5 7.85639 12.4875
  5 7.7185202 12.5169
  5 7.5620999 12.5627
  5 7.35291 12.6213
  5 7.8449702 12.3142
  5 7.6905699 12.3325
  5 7.5509601 12.3619
  5 7.62604 12.7508
  5 7.7650499 12.6851
  5 7.8621101 12.6189
  5 7.49298 12.7907
  5 7.8552399 11.8031
  5 7.8389602 11.9463
  5 7.6676998 11.8951
  5 7.73456 11.7906
  5 7.8088999 11.3764
  5 7.8538198 11.5144
  5 7.6915998 11.5296
  5 7.6715598 11.3874
  5 7.5602899 11.5433
  5 7.5398302 11.3935
  5 7.9097199 11.3537
  5 7.9211798 11.4397
  5 24 8
  5 24 9
  5 19.75 8
  5 16 9
  5 16 11
  5 11.25 9
  5 11.25 11
  5 8.25 9.9230003
  5 0 13
  5 0 10
  5 7 13
  0 8.1542997 11.019
  0 8.0732203 11.0732
  0 8.0190401 11.1543
  0 8 11.25
  2.5 8.25 11
  2.5 8.1543198 11.019
  2.5 8.0732403 11.0732
  2.5 8.0190296 11.1543
  2.5 8 11.25
  5 8.1543398 11.019
  5 8.0190201 11.1543
  0 7.9619198 12.6914
  0 7.85355 12.8536
  0 7.6914001 12.9619
  2.5 8 12.5
  2.5 7.9619198 12.6914
  2.5 7.85355 12.8536
  2.5 7.6914001 12.9619
  2.5 7.5 13
  5 7.9619198 12.6914
  5 7.6914001 12.9619
  0 24 9
  0 24 8
  0 16 9
  0 16 11
  0 0 10
  0 0 13
  0 8.25 11
  0 8 12.5
  0 7.5 13
  0 26 8
  7 26 8
  7 24 8
  7 19.75 8
  7 16 9
  7 11.25 9
  7 8 10
  7 0 10
  7 -2 10
  0 -2 10
  0 0 -11
  0 0 -8
  0 -2 -8
  5 -2 -8
  7 -2 -8
  5 0 -8
  5 0 -11
  5 8 -11
  5 8 -8
  7 8 -8
  5 11.25 -11
  5 11.25 -9
  7 11.25 -9
  5 16 -11
  5 16 -9
  7 16 -9
  5 19.75 -11
  5 19.75 -10
  7 19.75 -10
  0 24 -11
  0 24 -10
  5 24 -10
  5 24 -11
  0 26 -10
  5 26 -10
  7 26 -10
  0 -12 -4
  0 -12 4
  0.59691 -12 -3.95521
  1.23343 -12 -3.8050799
  1.86684 -12 -3.5376401
  2.4031 -12 -3.19767
  2.8287699 -12 -2.8280799
  3.3204401 -12 -2.2304001
  3.7355101 -12 -1.43038
  3.9353299 -12 -0.71638
  3.99986 -12 0.033360001
  3.9236801 -12 0.77765
  3.70276 -12 1.5131201
  3.35693 -12 2.1750901
  2.89656 -12 2.75861
  2.35395 -12 3.23403
  1.75721 -12 3.5933499
  1.15512 -12 3.8295801
  0.56093001 -12 3.96047
  0 36 4
  0 -10.74305 4
  0 -8.8877001 4
  0 -6.64749 4
  0 -4.4520202 4
  0 -0.91935998 4
  0 4.1451802 4
  0 6.5874801 4
  0 9.6641598 4
  0 12.05562 4
  0 14.49892 4
  0 17.62665 4
  0 20.31963 4
  0 24.96072 4
  0 29.447201 4
  0 31.71022 4
  0 33.614449 4
  0 35.069408 4
  0 36 -4
  0.59992999 36 3.9547601
  1.23847 36 3.8034401
  1.87132 36 3.53528
  2.4058001 36 3.1956401
  2.8282499 36 2.8285999
  3.3155899 36 2.2376001
  3.73171 36 1.44025
  3.9328899 36 0.72964001
  3.99999 36 0.0072900001
  3.9333899 36 -0.72693002
  3.7302999 36 -1.44391
  3.33354 36 -2.2107601
  2.85148 36 -2.8051901
  2.2863901 36 -3.28214
  1.63682 36 -3.64977
  1.11455 36 -3.8415799
  0.56461 36 -3.95995
  0 34.660969 -4
  0 32.562721 -4
  0 29.97246 -4
  0 27.95475 -4
  0 24.93602 -4
  0 20.302031 -4
  0 17.554199 -4
  0 14.35119 -4
  0 11.96894 -4
  0 9.5282402 -4
  0 6.4085202 -4
  0 3.7104001 -4
  0 -0.45164999 -4
  0 -4.9424 -4
  0 -7.5040002 -4
  0 -9.5015297 -4
  0 -11.02535 -4
  0 2.06879 -4
  0 1.24817 -4
  0 0.49794999 -4
  0 2.22891 4
  0 0.81572998 4
  0 -0.26539999 4
  0 21.99789 -4
  0 23.24082 -4
  0 24.336769 -4
  0 21.95322 4
  0 23.16386 4
  0 24.22176 4
  0 -2.85941 -4
  0 -1.4497 -4
  0 -2.7124801 4
  0 -1.53432 4
  0 26.52626 -4
  0 25.50606 -4
  0 27.292681 4
  0 25.770599 4
  2.28036 11.9291 -3.28633
  1.91748 7.67834 -3.5104499
  1.39183 4.80584 -3.7500401
  3.10004 4.74612 -2.5278001
  3.9990201 4.8172798 0.088550001
  3.99929 11.9788 0.075259998
  3.01126 4.7799001 2.63293
  1.3206 4.94069 3.7757101
  1.8592499 7.7599902 3.54164
  2.2600501 12.04547 3.3003299
  4 19.16868 0.00563
  3.05144 19.22123 -2.5862501
  1.3638999 19.169729 -3.7602899
  1.9216 16.2623 -3.5081999
  1.88377 16.34564 3.5286601
  1.37297 19.23073 3.7569799
  3.0655799 19.302641 2.5694799
  0.86913002 -9.0537996 -3.9044399
  1.36253 -6.45576 -3.7607901
  2.03706 -9.1967897 -3.44244
  3.0427899 -9.6960602 -2.59642
  3.11128 -6.5859799 -2.5139501
  3.7595 -9.34266 -1.36607
  3.99985 -9.72826 0.034839999
  3.99986 -6.6045198 0.033369999
  1.03898 -4.23036 -3.86271
  3.0157001 -3.5415201 -2.62784
  2.0545499 -4.0341301 -3.43203
  3.9999399 -3.50264 0.021400001
  3.7465501 -3.8693199 -1.40121
  1.00023 2.9837401 -3.87292
  1.99481 2.63411 -3.4670899
  2.9898701 2.1756401 -2.6571901
  3.74575 2.4530399 -1.40334
  3.9997001 2.15958 0.04896
  3.7270701 -9.3715 1.45222
  2.9589 -9.7177296 2.6916399
  3.0344 -6.6317601 2.60623
  1.8386199 -9.2802401 3.5523901
  0.83367002 -8.3857899 3.9121599
  1.4371901 -6.6609802 3.7328899
  2.82548 -3.4198599 2.8313701
  3.7143099 -3.8546 1.48454
  0.80230999 -4.9971399 3.91871
  1.7729599 -4.3526502 3.5856099
  3.7092199 2.4500401 1.4972301
  2.93365 2.1641099 2.71913
  1.91758 2.6003499 3.5104001
  0.80755001 2.8731599 3.91763
  0.98341 21.00453 -3.8772299
  2.9625399 21.81427 -2.6876299
  1.97163 21.362551 -3.48032
  4 21.8263 -0.0017
  3.7290599 21.54393 -1.4471
  0.84746999 28.41947 -3.9091899
  1.34399 31.00028 -3.7674501
  1.95439 28.53739 -3.4900401
  2.8726201 27.537491 -2.78353
  3.07745 30.803141 -2.5552499
  3.72995 27.937889 -1.4448
  3.9999599 27.5711 0.01726
  3.9999599 30.71059 0.01826
  1.04168 33.19352 -3.86198
  3.05671 33.78064 -2.58002
  2.0887799 33.37014 -3.4112999
  3.99999 33.78548 0.01071
  3.75229 33.41819 -1.3857501
  2.9704299 21.84819 2.67891
  3.7311699 21.564171 1.4416699
  0.98997998 21.02796 3.87556
  1.97903 21.39423 3.47613
  3.71189 27.900511 1.4906
  2.82811 27.44532 2.8287399
  3.0441201 30.70179 2.5948701
  1.9359699 28.37347 3.5002899
  0.86822999 28.146049 3.9046299
  1.3056999 30.70393 3.78089
  3.02368 33.759472 2.61866
  3.7426801 33.397011 1.41152
  0.86284 33.163891 3.9058299
  2.02665 33.284828 3.44858
  0.53031999 -10.54581 -3.96469
  1.24149 -10.79507 -3.80246
  1.85972 -10.73898 -3.5413899
  2.4430201 -10.9691 -3.16728
  3.06586 -11.1071 -2.56914
  3.4845901 -10.83058 -1.96409
  3.7465 -10.79563 -1.40133
  3.93436 -10.9762 -0.72167999
  3.9999299 -10.92991 0.02358
  0.54517001 -3.4960599 -3.9626801
  1.86409 -2.6193299 -3.5390899
  1.12497 -2.6482699 -3.8385501
  2.9570999 -2.3545899 -2.69361
  2.4491899 -2.3675101 -3.1625099
  3.7269199 -2.41852 -1.45261
  3.3958299 -2.2783401 -2.1138401
  3.99998 -2.31918 0.01383
  3.93224 -2.2630999 -0.73315001
  0.48600999 2.2506599 -3.97036
  1.03264 1.61027 -3.8644099
  1.64176 1.01027 -3.6475501
  2.3771501 1.13073 -3.21701
  2.9168301 0.91806 -2.73717
  3.3824799 1.09831 -2.1351399
  3.72047 0.97202998 -1.46904
  3.9326401 1.103 -0.73101997
  3.9999199 0.92061001 0.02526
  3.92483 -10.98669 0.77183002
  3.71071 -10.84217 1.49354
  3.3622999 -10.98292 2.16677
  2.9045999 -10.92152 2.75014
  2.34975 -10.9585 3.2370801
  1.73632 -10.83507 3.6034999
  1.08728 -11.01642 3.84939
  0.76551998 -9.8518496 3.92606
  3.7083199 -2.4072399 1.49945
  3.9251001 -2.2583599 0.77043998
  2.9008999 -2.24119 2.75405
  3.3515 -2.2332599 2.18344
  2.0272801 -2.7557299 3.44821
  2.4846799 -2.0524499 3.1347001
  0.75187999 -3.6073599 3.9287
  1.1426899 -2.47261 3.8333099
  3.92189 1.10123 0.78662997
  3.7005799 0.96959001 1.51845
  3.3510001 1.09403 2.1842201
  2.88114 0.91095001 2.7747099
  2.3353901 1.1134599 3.2474501
  1.59742 0.95016998 3.6671901
  0.99330997 1.5114599 3.8747101
  0.55743998 1.91642 3.9609699
  0.49281999 21.7568 -3.9695301
  1.62708 22.99963 -3.65412
  1.03614 22.369459 -3.8634701
  2.9170599 23.085409 -2.7369201
  2.36484 22.870541 -3.2260699
  3.7102799 23.02141 -1.4946001
  3.3764801 22.889099 -2.1446199
  3.9999001 23.07778 -0.028410001
  3.92467 22.884171 -0.77261001
  0.51978999 26.939911 -3.96608
  1.2839 26.73991 -3.7883501
  2.11377 26.901501 -3.39588
  2.52051 26.13163 -3.1059699
  2.9346299 26.315229 -2.71807
  3.3684299 26.286421 -2.1572399
  3.7183199 26.46217 -1.47449
  3.92922 26.299391 -0.74917001
  3.99998 26.368481 0.01184
  0.55062002 33.939442 -3.96192
  1.97271 35.023949 -3.4797201
  1.14169 34.81097 -3.8336101
  3.08146 35.119732 -2.55042
  2.58816 34.882408 -3.0498199
  3.7384601 34.839008 -1.42265
  3.4853899 34.8596 -1.96266
  3.99999 34.962269 0.0066800001
  3.93189 35.00071 -0.73504001
  3.72154 23.037291 1.4663301
  3.9317601 22.89184 0.73572999
  2.9193499 23.097481 2.7344799
  3.3814099 22.9046 2.1368401
  1.64466 23.006981 3.64624
  2.3765199 22.87462 3.2174699
  0.49487001 21.73579 3.96927
  1.0407 22.361271 3.8622501
  3.92575 26.293051 0.76713002
  3.7060101 26.447969 1.50515
  3.34197 26.26297 2.198
  2.88063 26.253599 2.7752399
  2.47122 26.05374 3.1453199
  2.08148 26.80472 3.41576
  1.2917 26.68425 3.7857001
[...]
POINT_DATA 687
VECTORS displacement0 float
 0.0 0.0 0.0
 0.0 0.0 0.0
 0.0 0.0 0.0
 0.0 0.0 0.0
 0.0 0.0 0.0
 0.0 0.0 0.0
 0.0 0.0 0.0
 0.0 0.0 0.0
 0.0 0.0 0.0
 0.0 0.0 0.0
 0.0 0.0 0.0
 0.0 0.0 0.0
 0.0 0.0 0.0
 0.0 0.0 0.0
 0.0 0.0 0.0
 0.0 0.0 0.0
 0.0 0.0 0.0
 0.0 0.0 0.0
 0.0 0.0 0.0
 0.0 0.0 0.0
 0.0 0.0 0.0
 0.0 0.0 0.0
 0.0 0.0 0.0
 0.0 0.0 0.0
 0.0 0.0 0.0
 0.0 0.0 0.0
 0.0 0.0 0.0
 0.0 0.0 0.0
 0.0 0.0 0.0
 0.0 0.0 0.0
 0.0 0.0 0.0
 0.0 0.0 0.0
 0.0 0.0 0.0
 0.0 0.0 0.0
 0.0 0.0 0.0
 0.0 0.0 0.0
 0.0 0.0 0.0
 0.0 0.0 0.0
 0.0 0.0 0.0
 0.0 0.0 0.0
 0.0 0.0 0.0
 0.0 0.0 0.0
 0.0 0.0 0.0
 0.0 0.0 0.0
 0.0 0.0 0.0
 0.0 0.0 0.0
 0.0 0.0 0.0
 0.0 0.0 0.0
 0.0 0.0 0.0
 0.0 0.0 0.0
 0.0 0.0 0.0
 0.0 0.0 0.0
 0.0 0.0 0.0
 0.0 0.0 0.0
 0.0 0.0 0.0
 0.0 0.0 0.0
 0.0 0.0 0.0
 0.0 0.0 0.0
 0.0 0.0 0.0
 0.0 0.0 0.0
 0.0 0.0 0.0
 0.0 0.0 0.0
 0.0 0.0 0.0
 0.0 0.0 0.0
 0.0 0.0 0.0
 0.0 0.0 0.0
 0.0 0.0 0.0
 0.0 0.0 0.0
 0.0 0.0 0.0
 0.0 0.0 0.0
 0.0 0.0 0.0
 0.0 0.0 0.0
 0.0 0.0 0.0
 0.0 0.0 0.0
 0.0 0.0 0.0
 0.0 0.0 0.0
 0.0 0.0 0.0
 0.0 0.0 0.0
 0.0 0.0 0.0
 0.0 0.0 0.0
 0.0 0.0 0.0
 0.0 0.0 0.0
 0.0 0.0 0.0
 0.0 0.0 0.0
 0.0 0.0 0.0
 0.0 0.0 0.0
 0.0 0.0 0.0
 0.0 0.0 0.0
 0.0 0.0 0.0
 0.0 0.0 0.0
 0.0 0.0 0.0
 0.0 0.0 0.0
 0.0 0.0 0.0
 0.0 0.0 0.0
 0.0 0.0 0.0
 0.0 0.0 0.0
 0.0 0.0 0.0
 0.0 0.0 0.0
 0.0 0.0 0.0
 0.0 0.0 0.0
 0.0 0.0 0.0
 0.0 0.0 0.0
 0.0 0.0 0.0
 0.0 0.0 0.0
 0.0 0.0 0.0
 0.0 0.0 0.0
 0.0 0.0 0.0
 0.0 0.0 0.0
 0.0 0.0 0.0
 0.0 0.0 0.0
 0.0 0.0 0.0
 0.0 0.0 0.0
 0.0 0.0 0.0
 0.0 0.0 0.0
 0.0 0.0 0.0
 0.0 0.0 0.0
 0.0 0.0 0.0
 0.0 0.0 0.0
 0.0 0.0 0.0
 0.0 0.0 0.0
 0.0 0.0 0.0
 0.0 0.0 0.0
 0.0 0.0 0.0
 0.0 0.0 0.0
 0.0 0.0 0.0
 0.0 0.0 0.0
 0.0 0.0 0.0
 0.0 0.0 0.0
 0.0 0.0 0.0
 0.0 0.0 0.0
 0.0 0.0 0.0
 0.0 0.0 0.0
 0.0 0.0 0.0
 0.0 0.0 0.0
 0.0 0.0 0.0
 0.0 0.0 0.0
 0.0 0.0 0.0
 0.0 0.0 0.0
 0.0 0.0 0.0
 0.0 0.0 0.0
 0.0 0.0 0.0
 0.0 0.0 0.0
 0.0 0.0 0.0
 0.0 0.0 0.0
 0.0 0.0 0.0
 0.0 0.0 0.0
 0.0 0.0 0.0
 0.0 0.0 0.0
 0.0 0.0 0.0
 0.0 0.0 0.0
 0.0 0.0 0.0
 0.0 0.0 0.0
 0.0 0.0 0.0
 0.0 0.0 0.0
 0.0 0.0 0.0
 0.0 0.0 0.0
 0.0 0.0 0.0
 0.0 0.0 0.0
 0.0 0.0 0.0
 0.0 0.0 0.0
 0.0 0.0 0.0
 0.0 0.0 0.0
 0.0 0.0 0.0
 0.0 0.0 0.0
 0.0 0.0 0.0
 0.0 0.0 0.0
 0.0 0.0 0.0
 0.0 0.0 0.0
 0.0 0.0 0.0
 0.0 0.0 0.0
 0.0 0.0 0.0
 0.0 0.0 0.0
 0.0 0.0 0.0
 0.0 0.0 0.0
 0.0 0.0 0.0
 0.0 0.0 0.0
 0.0 0.0 0.0
 0.0 0.0 0.0
 0.0 0.0 0.0
 0.0 0.0 0.0
 0.0 0.0 0.0
 0.0 0.0 0.0
 0.0 0.0 0.0
 0.0 0.0 0.0
 0.0 0.0 0.0
 0.0 0.0 0.0
 0.0 0.0 0.0
 0.0 0.0 0.0
 0.0 0.0 0.0
 0.0 0.0 0.0
 0.0 0.0 0.0
 0.0 0.0 0.0
 0.0 0.0 0.0
 0.0 0.0 0.0
 0.0 0.0 0.0
 0.0 0.0 0.0
 0.0 0.0 0.0
 0.0 0.0 0.0
 0.0 0.0 0.0
 0.0 0.0 0.0
 0.0 0.0 0.0
 0.0 0.0 0.0
 0.0 0.0 0.0
 0.0 0.0 0.0
 0.0 0.0 0.0
 0.0 0.0 0.0
 0.0 0.0 0.0
 0.0 0.0 0.0
 0.0 0.0 0.0
 0.0 0.0 0.0
 0.0 0.0 0.0
 0.0 0.0 0.0
 0.0 0.0 0.0
 0.0 0.0 0.0
 0.0 0.0 0.0
 0.0 0.0 0.0
 0.0 0.0 0.0
 0.0 0.0 0.0
 0.0 0.0 0.0
 0.0 0.0 0.0
 0.0 0.0 0.0
 0.0 0.0 0.0
 0.0 0.0 0.0
 0.0 0.0 0.0
 0.0 0.0 0.0
 0.0 0.0 0.0
 0.0 0.0 0.0
 0.0 0.0 0.0
 0.0 0.0 0.0
 0.0 0.0 0.0
 0.0 0.0 0.0
 0.0 0.0 0.0
 0.0 0.0 0.0
 0.0 0.0 0.0
 0.0 0.0 0.0
 0.0 0.0 0.0
 0.0 0.0 0.0
 0.0 0.0 0.0
 0.0 0.0 0.0
 0.0 0.0 0.0
 0.0 0.0 0.0
 0.0 0.0 0.0
 0.0 0.0 0.0
 0.0 0.0 0.0
 0.0 0.0 0.0
 0.0 0.0 0.0
 0.0 0.0 0.0
 0.0 0.0 0.0
 0.0 0.0 0.0
 0.0 0.0 0.0
 0.0 0.0 0.0
 0.0 0.0 0.0
 0.0 0.0 0.0
 0.0 0.0 0.0
 0.0 0.0 0.0
 0.0 0.0 0.0
 0.0 0.0 0.0
 0.0 0.0 0.0
 0.0 0.0 0.0
 0.0 0.0 0.0
 0.0 0.0 0.0
 0.0 0.0 0.0
 0.0 0.0 0.0
 0.0 0.0 0.0
 0.0 0.0 0.0
 0.0 0.0 0.0
 0.0 0.0 0.0
 0.0 0.0 0.0
 0.0 0.0 0.0
 0.0 0.0 0.0
 0.0 0.0 0.0
 0.0 0.0 0.0
 0.0 0.0 0.0
 0.0 0.0 0.0
 0.0 0.0 0.0
 0.0 0.0 0.0
 0.0 0.0 0.0
 0.0 0.0 0.0
 0.0 0.0 0.0
 0.0 0.0 0.0
 0.0 0.0 0.0
 0.0 0.0 0.0
 0.0 0.0 0.0
 0.0 0.0 0.0
 0.0 0.0 0.0
 0.0 0.0 0.0
 0.0 0.0 0.0
 0.0 0.0 0.0
 0.0 0.0 0.0
 0.0 0.0 0.0
 0.0 0.0 0.0
 0.0 0.0 0.0
 0.0 0.0 0.0
 0.0 0.0 0.0
 0.0 0.0 0.0
 0.0 0.0 0.0
 0.0 0.0 0.0
 0.0 0.0 0.0
 0.0 0.0 0.0
 0.0 0.0 0.0
 0.0 0.0 0.0
 0.0 0.0 0.0
 0.0 0.0 0.0
 0.0 0.0 0.0
 0.0 0.0 0.0
 0.0 0.0 0.0
 0.0 0.0 0.0
 0.0 0.0 0.0
 0.0 0.0 0.0
 0.0 0.0 0.0
 0.0 0.0 0.0
 0.0 0.0 0.0
 0.0 0.0 0.0
 0.0 0.0 0.0
 0.0 0.0 0.0
 0.0 0.0 0.0
 0.0 0.0 0.0
 0.0 0.0 0.0
 0.0 0.0 0.0
 0.0 0.0 0.0
 0.0 0.0 0.0
 0.0 0.0 0.0
 0.0 0.0 0.0
 0.0 0.0 0.0
 0.0 0.0 0.0
 0.0 0.0 0.0
 0.0 0.0 0.0
 0.0 0.0 0.0
 0.0 0.0 0.0
 0.0 0.0 0.0
 0.0 0.0 0.0
 0.0 0.0 0.0
 0.0 0.0 0.0
 0.0 0.0 0.0
 0.0 0.0 0.0
 0.0 0.0 0.0
 0.0 0.0 0.0
 0.0 0.0 0.0
 0.0 0.0 0.0
 0.0 0.0 0.0
 0.0 0.0 0.0
 0.0 0.0 0.0
 0.0 0.0 0.0
 0.0 0.0 0.0
 0.0 0.0 0.0
 0.0 0.0 0.0
 0.0 0.0 0.0
 0.0 0.0 0.0
 0.0 0.0 0.0
 0.0 0.0 0.0
 0.0 0.0 0.0
 0.0 0.0 0.0
 0.0 0.0 0.0
 0.0 0.0 0.0
 0.0 0.0 0.0
 0.0 0.0 0.0
 0.0 0.0 0.0
 0.0 0.0 0.0
 0.0 0.0 0.0
 0.0 0.0 0.0
 0.0 0.0 0.0
 0.0 0.0 0.0
 0.0 0.0 0.0
 0.0 0.0 0.0
 0.0 0.0 0.0
 0.0 0.0 0.0
 0.0 0.0 0.0
 0.0 0.0 0.0
 0.0 0.0 0.0
 0.0 0.0 0.0
 0.0 0.0 0.0
 0.0 0.0 0.0
 0.0 0.0 0.0
 0.0 0.0 0.0
 0.0 0.0 0.0
 0.0 0.0 0.0
 0.0 0.0 0.0
 0.0 0.0 0.0
 0.0 0.0 0.0
 0.0 0.0 0.0
 0.0 0.0 0.0
 0.0 0.0 0.0
 0.0 0.0 0.0
 0.0 0.0 0.0
 0.0 0.0 0.0
 0.0 0.0 0.0
 0.0 0.0 0.0
 0.0 0.0 0.0
 0.0 0.0 0.0
 0.0 0.0 0.0
 0.0 0.0 0.0
 0.0 0.0 0.0
 0.0 0.0 0.0
 0.0 0.0 0.0
 0.0 0.0 0.0
 0.0 0.0 0.0
 0.0 0.0 0.0
 0.0 0.0 0.0
 0.0 0.0 0.0
 0.0 0.0 0.0
 0.0 0.0 0.0
 0.0 0.0 0.0
 0.0 0.0 0.0
 0.0 0.0 0.0
 0.0 0.0 0.0
 0.0 0.0 0.0
 0.0 0.0 0.0
 0.0 0.0 0.0
 0.0 0.0 0.0
 0.0 0.0 0.0
 0.0 0.0 0.0
 0.0 0.0 0.0
 0.0 0.0 0.0
 0.0 0.0 0.0
 0.0 0.0 0.0
 0.0 0.0 0.0
 0.0 0.0 0.0
 0.0 0.0 0.0
 0.0 0.0 0.0
 0.0 0.0 0.0
 0.0 0.0 0.0
 0.0 0.0 0.0
 0.0 0.0 0.0
 0.0 0.0 0.0
 0.0 0.0 0.0
 0.0 0.0 0.0
 0.0 0.0 0.0
 0.0 0.0 0.0
 0.0 0.0 0.0
 0.0 0.0 0.0
 0.0 0.0 0.0
 0.0 0.0 0.0
 0.0 0.0 0.0
 0.0 0.0 0.0
 0.0 0.0 0.0
 0.0 0.0 0.0
 0.0 0.0 0.0
 0.0 0.0 0.0
 0.0 0.0 0.0
 0.0 0.0 0.0
 0.0 0.0 0.0
 0.0 0.0 0.0
 0.0 0.0 0.0
 0.0 0.0 0.0
 0.0 0.0 0.0
 0.0 0.0 0.0
 0.0 0.0 0.0
 0.0 0.0 0.0
 0.0 0.0 0.0
 0.0 0.0 0.0
 0.0 0.0 0.0
 0.0 0.0 0.0
 0.0 0.0 0.0
 0.0 0.0 0.0
 0.0 0.0 0.0
 0.0 0.0 0.0
 0.0 0.0 0.0
 0.0 0.0 0.0
 0.0 0.0 0.0
 0.0 0.0 0.0
 0.0 0.0 0.0
 0.0 0.0 0.0
 0.0 0.0 0.0
 0.0 0.0 0.0
 0.0 0.0 0.0
 0.0 0.0 0.0
 0.0 0.0 0.0
 0.0 0.0 0.0
 0.0 0.0 0.0
 0.0 0.0 0.0
 0.0 0.0 0.0
 0.0 0.0 0.0
 0.0 0.0 0.0
 0.0 0.0 0.0
 0.0 0.0 0.0
 0.0 0.0 0.0
 0.0 0.0 0.0
 0.0 0.0 0.0
 0.0 0.0 0.0
 0.0 0.0 0.0
 0.0 0.0 0.0
 0.0 0.0 0.0
 0.0 0.0 0.0
 0.0 0.0 0.0
 0.0 0.0 0.0
 0.0 0.0 0.0
 0.0 0.0 0.0
 0.0 0.0 0.0
 0.0 0.0 0.0
 0.0 0.0 0.0
 0.0 0.0 0.0
 0.0 0.0 0.0
 0.0 0.0 0.0
 0.0 0.0 0.0
 0.0 0.0 0.0
 0.0 0.0 0.0
 0.0 0.0 0.0
 0.0 0.0 0.0
 0.0 0.0 0.0
 0.0 0.0 0.0
 0.0 0.0 0.0
 0.0 0.0 0.0
 0.0 0.0 0.0
 0.0 0.0 0.0
 0.0 0.0 0.0
 0.0 0.0 0.0
 0.0 0.0 0.0
 0.0 0.0 0.0
 0.0 0.0 0.0
 0.0 0.0 0.0
 0.0 0.0 0.0
 0.0 0.0 0.0
 0.0 0.0 0.0
 0.0 0.0 0.0
 0.0 0.0 0.0
 0.0 0.0 0.0
 0.0 0.0 0.0
 0.0 0.0 0.0
 0.0 0.0 0.0
 0.0 0.0 0.0
 0.0 0.0 0.0
 0.0 0.0 0.0
 0.0 0.0 0.0
 0.0 0.0 0.0
 0.0 0.0 0.0
 0.0 0.0 0.0
 0.0 0.0 0.0
 0.0 0.0 0.0
 0.0 0.0 0.0
 0.0 0.0 0.0
 0.0 0.0 0.0
 0.0 0.0 0.0
 0.0 0.0 0.0
 0.0 0.0 0.0
 0.0 0.0 0.0
 0.0 0.0 0.0
 0.0 0.0 0.0
 0.0 0.0 0.0
 0.0 0.0 0.0
 0.0 0.0 0.0
 0.0 0.0 0.0
 0.0 0.0 0.0
 0.0 0.0 0.0
 0.0 0.0 0.0
 0.0 0.0 0.0
 0.0 0.0 0.0
 0.0 0.0 0.0
 0.0 0.0 0.0
 0.0 0.0 0.0
 0.0 0.0 0.0
 0.0 0.0 0.0
 0.0 0.0 0.0
 0.0 0.0 0.0
 0.0 0.0 0.0
 0.0 0.0 0.0
 0.0 0.0 0.0
 0.0 0.0 0.0
 0.0 0.0 0.0
 0.0 0.0 0.0
 0.0 0.0 0.0
 0.0 0.0 0.0
 0.0 0.0 0.0
 0.0 0.0 0.0
 0.0 0.0 0.0
 0.0 0.0 0.0
 0.0 0.0 0.0
 0.0 0.0 0.0
 0.0 0.0 0.0
 0.0 0.0 0.0
 0.0 0.0 0.0
 0.0 0.0 0.0
 0.0 0.0 0.0
 0.0 0.0 0.0
 0.0 0.0 0.0
 0.0 0.0 0.0
 0.0 0.0 0.0
 0.0 0.0 0.0
 0.0 0.0 0.0
 0.0 0.0 0.0
 0.0 0.0 0.0
 0.0 0.0 0.0
 0.0 0.0 0.0
 0.0 0.0 0.0
 0.0 0.0 0.0
 0.0 0.0 0.0
 0.0 0.0 0.0
 0.0 0.0 0.0
 0.0 0.0 0.0
 0.0 0.0 0.0
 0.0 0.0 0.0
 0.0 0.0 0.0
 0.0 0.0 0.0
 0.0 0.0 0.0
 0.0 0.0 0.0
 0.0 0.0 0.0
 0.0 0.0 0.0
 0.0 0.0 0.0
 0.0 0.0 0.0
 0.0 0.0 0.0
 0.0 0.0 0.0
 0.0 0.0 0.0
 0.0 0.0 0.0
 0.0 0.0 0.0
 0.0 0.0 0.0
 0.0 0.0 0.0
 0.0 0.0 0.0
 0.0 0.0 0.0
 0.0 0.0 0.0
 0.0 0.0 0.0
 0.0 0.0 0.0
 0.0 0.0 0.0
 0.0 0.0 0.0
 0.0 0.0 0.0
 0.0 0.0 0.0
 0.0 0.0 0.0
 0.0 0.0 0.0
 0.0 0.0 0.0
 0.0 0.0 0.0
 0.0 0.0 0.0
 0.0 0.0 0.0
 0.0 0.0 0.0
 0.0 0.0 0.0
 0.0 0.0 0.0
 0.0 0.0 0.0
 0.0 0.0 0.0
 0.0 0.0 0.0
 0.0 0.0 0.0
 0.0 0.0 0.0
 0.0 0.0 0.0
 0.0 0.0 0.0
 0.0 0.0 0.0
 0.0 0.0 0.0
 0.0 0.0 0.0
 0.0 0.0 0.0
 0.0 0.0 0.0
 0.0 0.0 0.0
 0.0 0.0 0.0
 0.0 0.0 0.0
 0.0 0.0 0.0
 0.0 0.0 0.0
 0.0 0.0 0.0
 0.0 0.0 0.0
 0.0 0.0 0.0
 0.0 0.0 0.0
 0.0 0.0 0.0
 0.0 0.0 0.0
 0.0 0.0 0.0
 0.0 0.0 0.0
 0.0 0.0 0.0
 0.0 0.0 0.0
 0.0 0.0 0.0
 0.0 0.0 0.0
 0.0 0.0 0.0
 0.0 0.0 0.0
 0.0 0.0 0.0
 0.0 0.0 0.0
 0.0 0.0 0.0
 0.0 0.0 0.0
 0.0 0.0 0.0
 0.0 0.0 0.0
 0.0 0.0 0.0
 0.0 0.0 0.0
 0.0 0.0 0.0
 0.0 0.0 0.0
 0.0 0.0 0.0
 0.0 0.0 0.0
 0.0 0.0 0.0
 0.0 0.0 0.0
 0.0 0.0 0.0
 0.0 0.0 0.0
 0.0 0.0 0.0
 0.0 0.0 0.0
 0.0 0.0 0.0
 0.0 0.0 0.0
 0.0 0.0 0.0
 0.0 0.0 0.0
 0.0 0.0 0.0
 0.0 0.0 0.0
 0.0 0.0 0.0
 0.0 0.0 0.0
 0.0 0.0 0.0
 0.0 0.0 0.0
 0.0 0.0 0.0
 0.0 0.0 0.0
 0.0 0.0 0.0
 0.0 0.0 0.0
 0.0 0.0 0.0

VECTORS displacement1 float
 0.000000 0.000000 0.000000
 0.000000 0.000000 0.000000
 0.000000 0.000000 0.000000
 0.000000 0.000000 0.000000
 0.000000 0.000000 0.000000
 0.000000 0.000000 0.000000
 0.000000 0.000000 0.000000
 0.000000 0.000000 0.000000
 0.000000 0.000000 0.000000
 0.000000 0.000000 0.000000
 0.000000 0.000000 0.000000
 0.000000 0.000000 0.000000
 0.000000 0.000000 0.000000
 0.000000 0.000000 0.000000
 0.000000 0.000000 0.000000
 0.000000 0.000000 0.000000
 0.000000 0.000000 0.000000
 0.000000 0.000000 0.000000
 0.000000 0.000000 0.000000
 0.000000 0.000000 0.000000
 0.000000 0.000000 0.000000
 0.000000 0.000000 0.000000
 0.000000 0.000000 0.000000
 0.000000 0.000000 0.000000
 0.000000 0.000000 0.000000
 0.000000 0.000000 0.000000
 0.000000 0.000000 0.000000
 0.000000 0.000000 0.000000
 0.000000 0.000000 0.000000
 0.000000 0.000000 0.000000
 0.000000 0.000000 0.000000
 0.000000 0.000000 0.000000
 0.000000 0.000000 0.000000
 0.000000 0.000000 0.000000
 0.000000 0.000000 0.000000
 0.000000 0.000000 0.000000
 0.000000 0.000000 0.000000
 0.000000 0.000000 0.000000
 0.000000 0.000000 0.000000
 0.000000 0.000000 0.000000
 0.000000 0.000000 0.000000
 0.000000 0.000000 0.000000
 0.000000 0.000000 0.000000
 0.000000 0.000000 0.000000
 0.000000 0.000000 0.000000
 0.000000 0.000000 0.000000
 0.000000 0.000000 0.000000
 0.000000 0.000000 0.000000
 0.000000 0.000000 0.000000
 0.000000 0.000000 0.000000
 0.000000 0.000000 0.000000
 0.000000 0.000000 0.000000
 0.000000 0.000000 0.000000
 0.000000 0.000000 0.000000
 0.000000 0.000000 0.000000
 0.000000 0.000000 0.000000
 0.000000 0.000000 0.000000
 0.000000 0.000000 0.000000
 0.000000 0.000000 0.000000
 0.000000 0.000000 0.000000
 0.000000 0.000000 0.000000
 0.000000 0.000000 0.000000
 0.000000 0.000000 0.000000
 0.000000 0.000000 0.000000
 0.000000 0.000000 0.000000
 0.000000 0.000000 0.000000
 0.000000 0.000000 0.000000
 0.000000 0.000000 0.000000
 0.000000 0.000000 0.000000
 0.000000 0.000000 0.000000
 0.000000 0.000000 0.000000
 0.000000 0.000000 0.000000
 0.000000 0.000000 0.000000
 0.000000 0.000000 0.000000
 0.000000 0.000000 0.000000
 0.000000 0.000000 0.000000
 0.000000 0.000000 0.000000
 0.000000 0.000000 0.000000
 0.000000 0.000000 0.000000
 0.000000 0.000000 0.000000
 0.000000 0.000000 0.000000
 0.000000 0.000000 0.000000
 0.000000 0.000000 0.000000
 0.000000 0.000000 0.000000
 0.000000 0.000000 0.000000
 0.000000 0.000000 0.000000
 0.000000 0.000000 0.000000
 0.000000 0.000000 0.000000
 0.000000 0.000000 0.000000
 0.000000 0.000000 0.000000
 0.000000 0.000000 0.000000
 0.000000 0.000000 0.000000
 0.000000 0.000000 0.000000
 0.000000 0.000000 0.000000
 0.000000 0.000000 0.000000
 0.000000 0.000000 0.000000
 0.000000 0.000000 0.000000
 0.000000 0.000000 0.000000
 0.000000 0.000000 0.000000
 0.000000 0.000000 0.000000
 0.000000 0.000000 0.000000
 0.000000 0.000000 0.000000
 0.000000 0.000000 0.000000
 0.000000 0.000000 0.000000
 0.000000 0.000000 0.000000
 0.000000 0.000000 0.000000
 0.000000 0.000000 0.000000
 0.000000 0.000000 0.000000
 0.000000 0.000000 0.000000
 0.000000 0.000000 0.000000
 0.000000 0.000000 0.000000
 0.000000 0.000000 0.000000
 0.000000 0.000000 0.000000
 0.000000 0.000000 0.000000
 0.000000 0.000000 0.000000
 0.000000 0.000000 0.000000
 0.000000 0.000000 0.000000
 0.000000 0.000000 0.000000
 0.000000 0.000000 0.000000
 0.000000 0.000000 0.000000
 0.000000 0.000000 0.000000
 0.000000 0.000000 0.000000
 0.000000 0.000000 0.000000
 0.000000 0.000000 0.000000
 0.000000 0.000000 0.000000
 0.000000 0.000000 0.000000
 0.000000 0.000000 0.000000
 0.000000 0.000000 0.000000
 0.000000 0.000000 0.000000
 0.000000 0.000000 0.000000
 0.000000 0.000000 0.000000
 0.000000 0.000000 0.000000
 0.000000 0.000000 0.000000
 0.000000 0.000000 0.000000
 0.000000 0.000000 0.000000
 0.000000 0.000000 0.000000
 0.000000 0.000000 0.000000
 0.000000 0.000000 0.000000
 0.000000 0.000000 0.000000
 0.000000 0.000000 0.000000
 0.000000 0.000000 0.000000
 0.000000 0.000000 0.000000
 0.000000 0.000000 0.000000
 0.000000 0.000000 0.000000
 0.000000 0.000000 0.000000
 0.000000 0.000000 0.000000
 0.000000 0.000000 0.000000
 0.000000 0.000000 0.000000
 0.000000 0.000000 0.000000
 0.000000 0.000000 0.000000
 0.000000 0.000000 0.000000
 0.000000 0.000000 0.000000
 0.000000 0.000000 0.000000
 0.000000 0.000000 0.000000
 0.000000 0.000000 0.000000
 0.000000 0.000000 0.000000
 0.000000 0.000000 0.000000
 0.000000 0.000000 0.000000
 0.000000 0.000000 0.000000
 0.000000 0.000000 0.000000
 0.000000 0.000000 0.000000
 0.000000 0.000000 0.000000
 0.000000 0.000000 0.000000
 0.000000 0.000000 0.000000
 0.000000 0.000000 0.000000
 0.000000 0.000000 0.000000
 0.000000 0.000000 0.000000
 0.000000 0.000000 0.000000
 0.000000 0.000000 0.000000
 0.000000 0.000000 0.000000
 0.000000 0.000000 0.000000
 0.000000 0.000000 0.000000
 0.000000 0.000000 0.000000
 0.000000 0.000000 0.000000
 0.000000 0.000000 0.000000
 0.000000 0.000000 0.000000
 0.000000 0.000000 0.000000
 0.000000 0.000000 0.000000
 0.000000 0.000000 0.000000
 0.000000 0.000000 0.000000
 0.000000 0.000000 0.000000
 0.000000 0.000000 0.000000
 0.000000 0.000000 0.000000
 0.000000 0.000000 0.000000
 0.000000 0.000000 0.000000
 0.000000 0.000000 0.000000
 0.000000 0.000000 0.000000
 0.000000 0.000000 0.000000
 0.000000 0.000000 0.000000
 0.000000 0.000000 0.000000
 0.000000 0.000000 0.000000
 0.000000 0.000000 0.000000
 0.000000 0.000000 0.000000
 0.000000 0.000000 0.000000
 0.000000 0.000000 0.000000
 0.000000 0.000000 0.000000
 0.000000 -0.007490 0.549924
 0.000000 0.007165 0.943663
 0.000000 0.027948 1.201032
 0.000000 0.028280 1.307059
 0.000000 0.046736 1.370944
 0.000000 0.060394 1.344354
 0.000000 0.047679 1.332588
 0.000000 0.034065 1.401525
 0.000000 -0.001220 1.205709
 0.000000 -0.036740 1.403582
 0.000000 -0.050430 1.338589
 0.000000 -0.062960 1.359757
 0.000000 -0.047331 1.370828
 0.000000 -0.026270 1.284212
 0.000000 -0.024999 1.103343
 0.000000 0.002403 0.811597
 0.000000 0.007962 0.411260
 0.000000 0.000000 0.000000
 0.000000 0.000000 0.000000
 0.000000 0.000000 0.000000
 0.000000 0.000000 0.000000
 0.000000 0.000000 0.000000
 0.000000 0.000000 0.000000
 0.000000 0.000000 0.000000
 0.000000 0.000000 0.000000
 0.000000 0.000000 0.000000
 0.000000 0.000000 0.000000
 0.000000 0.000000 0.000000
 0.000000 0.000000 0.000000
 0.000000 0.000000 0.000000
 0.000000 0.000000 0.000000
 0.000000 0.000000 0.000000
 0.000000 0.000000 0.000000
 0.000000 0.000000 0.000000
 0.000000 0.000000 0.000000
 0.000000 0.009731 -0.568569
 0.000000 -0.021881 -1.021079
 0.000000 -0.023840 -1.247892
 0.000000 -0.030130 -1.318958
 0.000000 -0.046629 -1.377121
 0.000000 -0.061600 -1.361762
 0.000000 -0.048158 -1.336825
 0.000000 -0.035060 -1.404675
 0.000000 0.000320 -1.206963
 0.000000 0.036828 -1.403718
 0.000000 0.049675 -1.339247
 0.000000 0.062006 -1.360480
 0.000000 0.049861 -1.376537
 0.000000 0.026530 -1.307945
 0.000000 0.025395 -1.122189
 0.000000 -0.001514 -0.834800
 0.000000 -0.007860 -0.427493
 0.000000 0.060644 -1.366940
 0.000000 0.058578 -1.373141
 0.000000 0.055591 -1.384622
 0.000000 0.061874 1.372058
 0.000000 0.057425 1.382030
 0.000000 0.050855 1.380492
 0.000000 -0.060300 -1.368966
 0.000000 -0.056660 -1.383164
 0.000000 -0.050259 -1.383348
 0.000000 -0.061590 1.365865
 0.000000 -0.058040 1.381604
 0.000000 -0.051840 1.381691
 0.000000 0.036667 -1.359643
 0.000000 0.044006 -1.372148
 0.000000 0.035445 1.375770
 0.000000 0.042941 1.370381
 0.000000 -0.037620 -1.360826
 0.000000 -0.043190 -1.375443
 0.000000 -0.033732 1.344937
 0.000000 -0.042369 1.371056
 0.847777 0.001210 -1.096721
 0.648637 0.042896 -1.161107
 0.490757 0.056502 -1.262543
 1.110525 0.055517 -0.866263
 1.431167 0.050867 0.026063
 1.334370 0.000260 0.013863
 1.083737 0.055743 0.897594
 0.467334 0.055863 1.262268
 0.630815 0.041936 1.165331
 0.838094 -0.001190 1.098532
 1.432045 -0.051060 0.000843
 1.096750 -0.055260 -0.885252
 0.482759 -0.055679 -1.266990
 0.648289 -0.041580 -1.159549
 0.639536 -0.043711 1.165788
 0.484986 -0.057569 1.264257
 1.100160 -0.056940 0.879061
 0.200167 0.007559 -0.905522
 0.445563 0.026582 -1.151878
 0.473742 0.009809 -0.798347
 0.601386 -0.005394 -0.517234
 1.011003 0.028576 -0.779238
 0.850070 0.006565 -0.305801
 0.781745 -0.009072 0.006455
 1.291304 0.028706 0.011036
 0.346580 0.030259 -1.259017
 1.001850 0.036933 -0.861826
 0.702356 0.033868 -1.149493
 1.317256 0.038328 0.009241
 1.270657 0.036974 -0.467480
 0.347197 0.061410 -1.310931
 0.704583 0.061886 -1.197829
 1.022699 0.056816 -0.897948
 1.304252 0.057359 -0.483078
 1.354688 0.053458 0.015998
 0.838027 0.005652 0.324289
 0.578919 -0.007144 0.529437
 0.987674 0.028451 0.800089
 0.423052 0.009005 0.820046
 0.215417 0.017025 0.999533
 0.453499 0.022958 1.092971
 0.949180 0.036868 0.938707
 1.263491 0.037783 0.500549
 0.272779 0.027579 1.264567
 0.614457 0.030723 1.199774
 1.293144 0.057555 0.514519
 1.003829 0.057300 0.919288
 0.679435 0.062262 1.216978
 0.284337 0.061862 1.341460
 0.341950 -0.060989 -1.313815
 1.014146 -0.056740 -0.908590
 0.697094 -0.061581 -1.203145
 1.354782 -0.053721 -0.000894
 1.299457 -0.057461 -0.498101
 0.288338 -0.029440 -1.284705
 0.428097 -0.026161 -1.116422
 0.666269 -0.031700 -1.154435
 0.964165 -0.036331 -0.918140
 0.988454 -0.026461 -0.778044
 1.267646 -0.036569 -0.484365
 1.316126 -0.037519 0.005883
 1.284186 -0.027540 0.006451
 0.228770 -0.004620 -0.856446
 0.587255 0.007560 -0.500341
 0.462771 -0.008419 -0.764502
 0.768562 0.010060 0.002132
 0.831784 -0.004971 -0.304992
 1.016805 -0.057741 0.905016
 1.299863 -0.058102 0.495697
 0.344044 -0.062349 1.311544
 0.699128 -0.062849 1.199809
 1.262884 -0.037031 0.500561
 0.950884 -0.036960 0.935101
 0.983196 -0.027680 0.794947
 0.662213 -0.032501 1.164510
 0.296329 -0.030649 1.296468
 0.422281 -0.026270 1.138396
 0.586270 0.006229 0.512392
 0.834943 -0.005570 0.311651
 0.193556 -0.006809 0.886027
 0.460365 -0.008877 0.784976
 0.075532 -0.012090 -0.578367
 0.159742 -0.002870 -0.500409
 0.231992 -0.018380 -0.453271
 0.278128 -0.007710 -0.362719
 0.296818 -0.016660 -0.246982
 0.431547 -0.008330 -0.244275
 0.454826 -0.019460 -0.173568
 0.447444 -0.006870 -0.082388
 0.436135 -0.023870 0.001211
 0.184036 0.033098 -1.324389
 0.625372 0.039252 -1.186486
 0.385532 0.037512 -1.315633
 0.985762 0.041381 -0.896694
 0.828527 0.041387 -1.069789
 1.240637 0.042448 -0.481853
 1.147445 0.042500 -0.713130
 1.325447 0.042520 0.005808
 1.324414 0.043171 -0.245711
 0.169996 0.061016 -1.358342
 0.363296 0.060015 -1.338455
 0.565824 0.056808 -1.253657
 0.817994 0.056039 -1.104042
 0.992587 0.054208 -0.930405
 1.155793 0.054393 -0.727740
 1.260220 0.053014 -0.496932
 1.338496 0.053108 -0.248583
 1.352023 0.052049 0.008748
 0.443422 -0.007030 0.084990
 0.435370 -0.020880 0.174990
 0.379167 -0.006150 0.248063
 0.317950 -0.022980 0.303704
 0.270455 -0.006620 0.373816
 0.203310 -0.020530 0.430734
 0.109858 -0.009030 0.435654
 0.154147 0.001455 0.746632
 1.233727 0.042970 0.499544
 1.321696 0.043473 0.260528