# vtk DataFile Version 1.0
Data values for stock
ASCII

DATASET POLYDATA
POINTS 347 float
242 41.500 0 
243 41.625 0 
245 42.000 0 
246 42.250 0 
250 41.250 0 
251 40.875 0 
252 41.750 0 
253 42.875 0 
256 41.625 0 
258 38.250 0 
263 38.375 0 
264 37.625 0 
265 37.750 0 
266 38.250 0 
267 38.125 0 
270 38.375 0 
271 38.125 0 
273 36.750 0 
274 36.250 0 
277 36.875 0 
284 38.500 0 
285 38.875 0 
286 36.750 0 
287 37.500 0 
288 37.375 0 
291 36.500 0 
292 36.000 0 
293 35.125 0 
294 35.875 0 
295 35.750 0 
298 36.000 0 
299 35.750 0 
300 36.625 0 
302 35.625 0 
305 36.875 0 
306 36.875 0 
307 35.875 0 
308 35.750 0 
309 36.000 0 
312 35.750 0 
313 36.000 0 
314 35.875 0 
315 36.625 0 
316 38.250 0 
319 37.250 0 
320 37.375 0 
321 36.750 0 
322 36.375 0 
323 36.500 0 
326 35.500 0 
328 36.875 0 
330 37.250 0 
333 36.875 0 
334 36.875 0 
335 35.875 0 
336 36.875 0 
337 36.500 0 
340 36.125 0 
342 35.500 0 
343 35.125 0 
344 35.750 0 
347 35.625 0 
348 35.125 0 
349 35.500 0 
350 35.375 0 
351 35.375 0 
354 35.375 0 
355 35.375 0 
356 35.250 0 
357 35.000 0 
358 35.000 0 
363 35.000 0 
364 35.000 0 
365 35.000 0 
369 34.750 0 
370 37.000 0 
371 36.750 0 
375 37.000 0 
389 30.750 0 
390 31.375 0 
391 31.250 0 
392 30.625 0 
393 30.500 0 
396 30.250 0 
398 29.875 0 
399 29.250 0 
400 29.125 0 
404 30.000 0 
405 30.375 0 
406 29.875 0 
410 29.375 0 
412 29.125 0 
413 28.625 0 
418 29.000 0 
419 28.375 0 
420 28.000 0 
421 29.125 0 
425 31.250 0 
427 31.500 0 
428 30.875 0 
431 31.375 0 
432 31.000 0 
433 31.000 0 
435 31.000 0 
440 33.500 0 
442 32.875 0 
445 33.125 0 
446 32.750 0 
447 32.875 0 
448 31.875 0 
449 30.875 0 
452 30.875 0 
454 29.625 0 
455 29.625 0 
460 29.750 0 
461 29.875 0 
462 29.250 0 
463 28.625 0 
466 30.250 0 
467 30.125 0 
468 29.250 0 
469 28.875 0 
470 22.875 0 
473 21.125 0 
474 21.250 0 
475 19.750 0 
476 19.250 0 
478 19.375 0 
480 19.250 0 
481 20.125 0 
483 21.375 0 
484 21.000 0 
487 21.625 0 
488 21.625 0 
489 21.625 0 
490 21.375 0 
494 21.875 0 
495 22.250 0 
496 21.500 0 
497 21.375 0 
501 21.250 0 
502 21.125 0 
503 22.250 0 
504 23.000 0 
505 23.000 0 
508 22.875 0 
509 23.250 0 
510 23.500 0 
511 23.375 0 
512 22.875 0 
516 22.125 0 
517 21.375 0 
518 21.500 0 
519 20.875 0 
522 21.000 0 
523 21.000 0 
525 20.500 0 
529 20.125 0 
530 19.875 0 
531 19.625 0 
532 20.125 0 
533 19.750 0 
536 19.250 0 
537 19.375 0 
538 20.125 0 
539 20.375 0 
540 19.875 0 
543 19.875 0 
545 19.625 0 
546 19.500 0 
551 19.250 0 
552 19.000 0 
553 19.500 0 
554 19.500 0 
557 19.500 0 
558 21.000 0 
559 21.375 0 
560 20.125 0 
561 20.000 0 
564 20.000 0 
565 19.875 0 
566 19.375 0 
567 19.625 0 
568 19.375 0 
571 18.750 0 
572 19.750 0 
574 19.375 0 
575 19.375 0 
578 20.000 0 
579 19.875 0 
580 20.125 0 
581 20.375 0 
582 20.375 0 
585 21.250 0 
586 21.500 0 
587 21.625 0 
588 21.375 0 
589 21.125 0 
592 21.250 0 
593 20.875 0 
594 21.125 0 
595 21.750 0 
596 22.500 0 
599 23.125 0 
600 22.875 0 
601 23.000 0 
602 24.125 0 
603 24.875 0 
606 24.625 0 
607 25.250 0 
608 24.250 0 
609 24.250 0 
610 24.125 0 
614 24.000 0 
615 24.125 0 
616 24.750 0 
617 24.000 0 
620 24.000 0 
621 24.625 0 
622 24.625 0 
624 25.000 0 
627 26.125 0 
628 27.875 0 
629 29.000 0 
630 28.750 0 
631 25.875 0 
634 27.000 0 
635 26.875 0 
636 26.750 0 
637 26.500 0 
638 26.500 0 
641 26.625 0 
642 25.625 0 
643 26.000 0 
644 25.625 0 
645 26.125 0 
648 27.875 0 
649 29.125 0 
650 28.750 0 
651 28.875 0 
652 28.625 0 
655 28.500 0 
656 29.375 0 
657 29.875 0 
658 31.500 0 
659 31.375 0 
662 30.375 0 
663 29.875 0 
665 30.250 0 
666 31.375 0 
669 30.875 0 
670 29.875 0 
671 30.375 0 
672 30.750 0 
673 30.375 0 
676 30.000 0 
677 30.875 0 
683 32.750 0 
685 36.000 0 
697 35.250 0 
698 35.000 0 
699 33.875 0 
700 31.875 0 
701 33.375 0 
704 33.625 0 
705 32.750 0 
706 32.500 0 
707 32.250 0 
708 34.000 0 
711 33.875 0 
712 33.625 0 
713 34.875 0 
714 34.750 0 
715 34.625 0 
718 34.375 0 
719 34.000 0 
720 34.000 0 
721 34.000 0 
722 34.250 0 
727 34.250 0 
728 34.000 0 
729 33.250 0 
733 32.875 0 
734 32.875 0 
735 33.625 0 
736 34.250 0 
739 34.625 0 
740 35.375 0 
741 34.500 0 
742 34.875 0 
743 35.250 0 
747 37.500 0 
748 36.750 0 
749 36.625 0 
753 34.250 0 
754 33.875 0 
755 32.125 0 
756 32.000 0 
757 33.125 0 
760 32.875 0 
761 33.875 0 
762 34.500 0 
763 35.250 0 
764 35.750 0 
768 36.250 0 
769 36.000 0 
774 36.375 0 
775 35.875 0 
776 35.500 0 
782 35.000 0 
783 34.750 0 
784 34.000 0 
785 33.625 0 
788 32.375 0 
789 33.625 0 
790 33.250 0 
791 33.375 0 
792 33.000 0 
795 32.500 0 
796 31.750 0 
797 32.250 0 
798 32.500 0 
799 32.875 0 
802 33.125 0 
803 32.500 0 
804 32.125 0 
805 32.375 0 
806 31.875 0 
809 31.625 0 
810 31.875 0 
811 32.000 0 
812 32.250 0 
813 35.250 0 
816 36.250 0 
817 37.875 0 
818 37.000 0 
819 36.750 0 
820 37.875 0 
823 38.750 0 
824 38.625 0 
825 39.000 0 
827 40.750 0 
830 41.750 0 
831 41.500 0 
832 42.875 0 
833 45.125 0 
834 45.125 0  

LINES 1 348 347
0
1
2
3
4
5
6
7
8
9
10
11
12
13
14
15
16
17
18
19
20
21
22
23
24
25
26
27
28
29
30
31
32
33
34
35
36
37
38
39
40
41
42
43
44
45
46
47
48
49
50
51
52
53
54
55
56
57
58
59
60
61
62
63
64
65
66
67
68
69
70
71
72
73
74
75
76
77
78
79
80
81
82
83
84
85
86
87
88
89
90
91
92
93
94
95
96
97
98
99
100
101
102
103
104
105
106
107
108
109
110
111
112
113
114
115
116
117
118
119
120
121
122
123
124
125
126
127
128
129
130
131
132
133
134
135
136
137
138
139
140
141
142
143
144
145
146
147
148
149
150
151
152
153
154
155
156
157
158
159
160
161
162
163
164
165
166
167
168
169
170
171
172
173
174
175
176
177
178
179
180
181
182
183
184
185
186
187
188
189
190
191
192
193
194
195
196
197
198
199
200
201
202
203
204
205
206
207
208
209
210
211
212
213
214
215
216
217
218
219
220
221
222
223
224
225
226
227
228
229
230
231
232
233
234
235
236
237
238
239
240
241
242
243
244
245
246
247
248
249
250
251
252
253
254
255
256
257
258
259
260
261
262
263
264
265
266
267
268
269
270
271
272
273
274
275
276
277
278
279
280
281
282
283
284
285
286
287
288
289
290
291
292
293
294
295
296
297
298
299
300
301
302
303
304
305
306
307
308
309
310
311
312
313
314
315
316
317
318
319
320
321
322
323
324
325
326
327
328
329
330
331
332
333
334
335
336
337
338
339
340
341
342
343
344
345
346

POINT_DATA 347
SCALARS volume float
LOOKUP_TABLE default
522.3
606
327.5
391
408.3
514.7
352.9
693.5
495.6
2698.5
538.6
688.4
852.4
331.9
381.7
240
387.2
369.4
749.9
467.9
425.2
544.2
1068.7
787.4
719.6
690.7
744.8
1489.9
1209.5
584.6
530.9
733.7
584.5
380.2
463.4
671.6
743.7
525.9
392.4
223.5
261.9
622.1
519.3
918.7
626.2
511.6
493.1
448.4
366.9
512
414.6
185.9
372.3
403.9
1605.4
748.4
358.4
448.6
892.5
484.4
514.8
401.8
331
293.1
266.4
604.7
889.5
625.5
609.6
528.2
528.2
528.2
528.2
528.2
680.7
2171.5
1092.2
778.3
3193.6
1734.6
781.1
1229.6
658.2
1370.1
677.3
944.8
769.6
1550.7
929.6
597
343.5
416.4
750.1
358.4
552.3
528.2
899.9
3637.8
1148.8
464.9
672
851.8
416.1
231.8
2157.5
1156.4
448
381.7
455.6
833.7
430.9
748.8
823.6
1234.2
990
630.8
579.7
839.5
1008.3
755.5
1015.8
993.8
5881.7
2871.4
2124
2390.7
4203.3
1166.6
909.7
1042.6
1764
1424.3
641.4
456.6
531.3
272.4
277.7
693.6
417.1
345.5
134.6
222.1
498.1
1190.3
686.6
360.8
829.4
823.7
593.5
595.2
941.4
2754.2
892.2
1373.8
996.3
476.9
511.6
563.8
970.9
924.1
837.4
926.1
668.3
591.6
615.6
596.5
580.8
502.5
636.9
343.4
504.7
453.8
478.6
386.1
286
574.1
1860.1
2377
906
814
472.6
624
634
1114.7
1521.6
2016.9
271.7
471.8
247.3
514.4
362.1
789
290.5
820.6
946.1
872.5
737.9
280.5
296.5
567.2
517.3
1373.2
1230.5
1774.6
1129
816.4
2908.8
3150.7
1425.9
1303.9
1287.3
614.1
626.6
384.6
709.8
1153
868.6
1324.6
758
503.3
873
3284.9
5044.1
5536.2
4012.6
4230.1
1552.3
909.1
911.9
1092.8
884.9
639.7
859.8
1345.4
575.4
763.9
2041.7
5519.2
2421.9
1415.7
549.8
385.6
1271.8
5150.9
2617.5
1363.6
946
1087.5
543.5
941.1
324.4
980.3
1021.9
810.3
516.8
455.3
532.3
1640.5
4087.5
1323.9
1091.5
1300.4
4287.8
1722.2
869
1150.9
830.4
1057.6
1167.9
1131.3
1284.9
1534.4
687
770.9
432.3
451.6
811
633.5
305.4
412
342.2
427.1
456.3
463.5
932.9
808.1
654.9
1247.3
757.9
443
521.1
1451.2
3242.1
977
993.5
634.6
1626.9
1080.8
1347.4
1753
1173.9
985.7
889.4
1196.9
814.3
763.1
491.6
356.9
575.8
595.3
570.1
612.2
591.9
1018.6
770
411.9
387
729.2
771.7
585
646.3
473.7
422.6
452.6
662
950.8
615.7
734.4
536.4
1049.7
624.9
577.5
2687.5
1542.1
2260.4
2752.5
1249.3
1581.6
994.9
1202
1117.5
2294.7
2523.8
1649
1711.4
3022.5
3022.5
