# vtk DataFile Version 1.0
Data values for stock
ASCII

DATASET POLYDATA
POINTS 345 float
242 47.000 0 
243 46.875 0 
245 45.625 0 
246 45.000 0 
250 44.750 0 
251 44.750 0 
252 46.000 0 
253 46.750 0 
256 47.500 0 
258 47.250 0 
263 45.625 0 
264 44.875 0 
265 45.625 0 
266 46.125 0 
267 46.125 0 
270 45.250 0 
271 45.000 0 
273 41.750 0 
274 42.500 0 
277 42.875 0 
284 43.875 0 
285 43.750 0 
286 43.625 0 
287 44.750 0 
288 44.875 0 
291 46.375 0 
292 45.625 0 
293 45.625 0 
294 45.250 0 
295 45.875 0 
298 44.750 0 
299 45.375 0 
300 46.875 0 
301 49.000 0 
302 47.625 0 
305 48.250 0 
306 49.000 0 
307 49.250 0 
308 48.375 0 
309 47.750 0 
312 48.625 0 
313 48.500 0 
314 51.125 0 
315 50.750 0 
316 51.000 0 
319 51.500 0 
320 52.750 0 
321 53.750 0 
322 54.625 0 
323 54.250 0 
326 52.750 0 
327 52.750 0 
328 53.750 0 
330 53.875 0 
333 54.375 0 
334 52.875 0 
335 53.250 0 
336 53.500 0 
337 55.000 0 
340 54.750 0 
342 55.250 0 
343 56.000 0 
344 56.125 0 
347 56.125 0 
348 54.875 0 
349 54.625 0 
350 54.750 0 
351 54.625 0 
354 54.250 0 
355 54.875 0 
356 55.625 0 
357 55.250 0 
358 55.250 0 
363 55.250 0 
364 55.250 0 
365 55.250 0 
369 56.750 0 
370 56.875 0 
371 57.125 0 
375 59.250 0 
389 60.125 0 
390 59.250 0 
391 58.625 0 
392 59.875 0 
393 59.250 0 
396 61.250 0 
397 61.000 0 
398 61.500 0 
399 63.000 0 
400 61.625 0 
404 64.625 0 
405 64.250 0 
406 62.625 0 
410 61.750 0 
412 61.000 0 
413 60.000 0 
418 59.750 0 
419 59.875 0 
420 59.000 0 
421 58.250 0 
425 58.125 0 
427 60.500 0 
428 62.000 0 
431 61.625 0 
432 62.000 0 
433 62.625 0 
435 62.875 0 
440 61.750 0 
442 59.875 0 
445 59.625 0 
446 59.750 0 
447 60.500 0 
448 58.375 0 
449 56.875 0 
452 57.375 0 
453 56.000 0 
454 54.250 0 
455 53.875 0 
460 57.250 0 
461 58.750 0 
462 60.125 0 
463 57.750 0 
466 58.000 0 
467 57.375 0 
468 57.000 0 
469 58.000 0 
470 58.500 0 
473 56.875 0 
474 55.125 0 
475 54.625 0 
476 55.375 0 
478 55.625 0 
480 57.375 0 
481 56.750 0 
483 56.875 0 
484 56.750 0 
487 57.250 0 
489 56.750 0 
490 55.625 0 
494 53.875 0 
495 55.375 0 
496 54.250 0 
497 54.500 0 
501 53.000 0 
502 54.375 0 
503 54.125 0 
504 55.250 0 
505 55.375 0 
508 54.500 0 
509 54.750 0 
510 54.875 0 
511 54.250 0 
512 54.250 0 
517 53.875 0 
518 53.500 0 
519 52.000 0 
522 51.000 0 
523 50.375 0 
525 50.750 0 
529 52.125 0 
530 53.625 0 
531 54.000 0 
532 53.875 0 
533 53.875 0 
536 53.250 0 
537 52.000 0 
538 52.375 0 
539 50.750 0 
540 50.625 0 
543 52.250 0 
545 50.375 0 
546 50.250 0 
551 49.750 0 
552 49.500 0 
553 51.750 0 
554 51.375 0 
557 51.000 0 
559 52.125 0 
560 52.250 0 
561 51.875 0 
564 51.750 0 
565 51.500 0 
566 51.250 0 
567 50.625 0 
568 50.250 0 
571 49.875 0 
572 50.625 0 
574 50.250 0 
575 51.375 0 
578 52.875 0 
579 53.000 0 
580 52.875 0 
581 50.750 0 
582 50.250 0 
585 50.375 0 
586 50.250 0 
587 50.125 0 
588 50.000 0 
589 50.125 0 
592 49.875 0 
593 51.000 0 
594 51.000 0 
595 49.875 0 
596 49.125 0 
599 48.375 0 
600 48.625 0 
601 50.875 0 
602 50.500 0 
606 51.375 0 
607 52.000 0 
608 50.250 0 
609 50.375 0 
610 50.250 0 
614 52.250 0 
615 51.875 0 
616 51.250 0 
617 51.375 0 
620 50.250 0 
621 49.875 0 
622 50.250 0 
624 50.500 0 
627 50.250 0 
628 49.875 0 
629 48.625 0 
630 48.250 0 
631 46.625 0 
634 46.750 0 
635 47.500 0 
636 47.625 0 
637 46.750 0 
638 47.000 0 
641 46.250 0 
642 45.125 0 
643 45.625 0 
644 44.000 0 
645 43.875 0 
648 45.500 0 
649 47.125 0 
650 47.375 0 
651 47.250 0 
652 47.375 0 
655 46.625 0 
656 46.500 0 
657 46.875 0 
658 43.125 0 
659 41.250 0 
662 40.875 0 
663 41.125 0 
665 40.125 0 
666 40.375 0 
669 39.625 0 
670 38.750 0 
671 38.250 0 
672 39.125 0 
673 39.250 0 
676 38.625 0 
677 38.750 0 
683 38.750 0 
685 39.625 0 
698 38.375 0 
699 38.125 0 
700 37.625 0 
701 38.625 0 
704 39.000 0 
705 39.500 0 
706 38.750 0 
707 37.625 0 
708 37.250 0 
711 37.125 0 
712 37.500 0 
713 37.875 0 
714 37.750 0 
715 38.125 0 
718 38.000 0 
719 37.875 0 
720 37.875 0 
721 39.125 0 
722 41.250 0 
727 41.250 0 
728 42.125 0 
729 42.125 0 
733 41.750 0 
734 43.250 0 
735 43.000 0 
736 43.250 0 
739 43.000 0 
740 42.000 0 
741 42.000 0 
742 42.000 0 
743 42.375 0 
747 41.375 0 
748 40.000 0 
749 40.250 0 
753 39.500 0 
754 39.125 0 
755 39.125 0 
756 37.750 0 
757 37.500 0 
760 37.375 0 
761 38.875 0 
762 39.750 0 
764 39.250 0 
768 39.375 0 
769 38.750 0 
774 40.250 0 
775 40.500 0 
776 41.500 0 
782 41.000 0 
783 41.750 0 
784 42.750 0 
785 42.500 0 
788 42.250 0 
789 42.625 0 
790 40.625 0 
791 39.875 0 
792 39.875 0 
795 39.125 0 
796 39.500 0 
797 40.250 0 
798 41.125 0 
799 41.625 0 
802 42.125 0 
803 41.625 0 
804 41.750 0 
805 42.000 0 
806 41.125 0 
809 40.750 0 
810 40.750 0 
811 41.000 0 
812 41.500 0 
813 42.625 0 
816 43.500 0 
817 43.125 0 
818 44.625 0 
819 44.875 0 
820 44.000 0 
823 44.625 0 
824 43.500 0 
825 43.250 0 
827 43.625 0 
830 44.250 0 
831 44.125 0 
832 44.250 0 
833 43.875 0 
834 43.875 0 

LINES 1 346 345
0
1
2
3
4
5
6
7
8
9
10
11
12
13
14
15
16
17
18
19
20
21
22
23
24
25
26
27
28
29
30
31
32
33
34
35
36
37
38
39
40
41
42
43
44
45
46
47
48
49
50
51
52
53
54
55
56
57
58
59
60
61
62
63
64
65
66
67
68
69
70
71
72
73
74
75
76
77
78
79
80
81
82
83
84
85
86
87
88
89
90
91
92
93
94
95
96
97
98
99
100
101
102
103
104
105
106
107
108
109
110
111
112
113
114
115
116
117
118
119
120
121
122
123
124
125
126
127
128
129
130
131
132
133
134
135
136
137
138
139
140
141
142
143
144
145
146
147
148
149
150
151
152
153
154
155
156
157
158
159
160
161
162
163
164
165
166
167
168
169
170
171
172
173
174
175
176
177
178
179
180
181
182
183
184
185
186
187
188
189
190
191
192
193
194
195
196
197
198
199
200
201
202
203
204
205
206
207
208
209
210
211
212
213
214
215
216
217
218
219
220
221
222
223
224
225
226
227
228
229
230
231
232
233
234
235
236
237
238
239
240
241
242
243
244
245
246
247
248
249
250
251
252
253
254
255
256
257
258
259
260
261
262
263
264
265
266
267
268
269
270
271
272
273
274
275
276
277
278
279
280
281
282
283
284
285
286
287
288
289
290
291
292
293
294
295
296
297
298
299
300
301
302
303
304
305
306
307
308
309
310
311
312
313
314
315
316
317
318
319
320
321
322
323
324
325
326
327
328
329
330
331
332
333
334
335
336
337
338
339
340
341
342
343
344

POINT_DATA 345
SCALARS volume float
LOOKUP_TABLE default
1219.4
1119.8
1039.3
1768.8
1175.7
1823.4
2548.8
1560.5
1478.6
2154.8
1262
2046.6
1501.8
2942.3
2700.2
1948.9
2753.8
7842.5
4316.3
1723.7
1299.1
1290.2
1252.1
2742.7
2298.1
2025.4
1332.8
894.2
1350.7
1407.4
5572.5
3637.9
4141.9
5490.1
3882.5
1676.4
2619.6
4650.3
2335.5
2480.2
1709.9
2056.1
5044.5
5467.2
2752.9
1856.5
4057.6
4747.5
4592.4
3805.9
3007.3
2330.8
1859.9
468.8
1934.8
2685.1
2715.8
1557.2
3066.9
2517.6
2847.8
3546.7
1558.6
1645.3
1501.2
2734.7
1530.8
2402
1244.2
2482
2257.2
1566.4
1566.4
1566.4
1566.4
1566.4
2410.6
2440.8
2972.9
3804.8
1644.7
1950.1
2289.2
2565.9
2063.1
2777.4
2953.4
2217.7
4221.9
4800.6
4024.3
3180.9
7211.1
2810.3
2288.6
2845.9
1690.9
2390.3
2604
2352.3
2088.4
3055.5
3006.8
1574.6
2274.3
1790.1
1579.3
1786.9
4321.3
1781.8
1531.2
1819.8
3434.3
2337.6
2754.1
2189.4
4344.5
5450.1
4162.8
4650.9
4207.2
3087.6
1660.1
1375.1
2376.7
2196.2
2000.5
2160.3
4098.9
4744.4
4075
1809.2
2259
1966.4
4911.5
2229.5
2259.2
2297.1
1756.1
1965.7
1653.8
3479.4
2163
1767.7
3140.2
2509.1
2141.6
2461.4
1304.7
2046.3
1386
1669.6
1393.5
1848.6
1575
4217.4
2265.9
2359
1857.4
2148.7
2933.3
3423.7
2712.2
5369.3
1809
3045.1
1359.7
1547.4
2236.7
2063.1
2541.6
2577.4
1549.7
2141.5
2612.2
1739.3
1259.8
2672.7
2299.3
1725.8
831
793.7
1163.5
1161.8
1091.1
1350
1614.3
2246.7
2889.6
3128.5
2870.3
1650.4
4117.8
3556.9
1725.7
1606.4
989.8
1769.1
1083
1542.7
3175
3255.2
2014.3
3462.7
1913.9
2056.6
2506
2729.7
1631.8
1461.7
2928.3
1626.3
1009.4
2278.3
2412.8
1887.9
2755.7
811.4
1990.3
2836.7
4104.2
2163.4
2390.4
3054.1
2398.1
5356.6
3479.7
3851.2
1965.9
1548.9
3213
2225.6
3108.2
4255.3
3840.8
2892.3
2699.7
3319.6
1849.6
2760.5
1014.4
1801
1488
1741
16660.3
17377.1
5624.7
4418.1
4039.9
6097.3
3789.8
7681.1
6418.2
4122.5
4252.6
3617.7
2204.8
2292.8
3428.6
2036.6
2070.1
2111.5
1854.2
2790.5
2234.4
2579.6
2761.2
3154.9
1730.2
2640
2038.4
1644.6
3728.2
1734.5
1523.5
2777
3742.7
5048.1
2137.2
2492.7
1817
1812.2
3858.8
3422.3
3571.1
1853.7
1470.8
2042.6
1640.7
1851
1450.3
2898.9
1596.1
2582.6
969.5
1701.8
3311.8
1956.5
2492.5
3124.5
4188.9
2918.6
1401.2
1853.7
2837.4
1926.7
6169.2
1204.8
2425.8
5015.6
2558
2246.4
2236.7
2792.2
3960.1
2396.5
2881.8
2437.7
1962.5
2339.7
2032.4
2191.5
2566.4
1713
3115.6
3692.3
1768.6
1974.8
2025.9
1632.5
2630.9
2645.7
1616.1
3993.5
5166.4
3369
2089
2735.2
2387.1
1474.7
1806.7
1520.5
4484.3
1691.8
1691.8
