# vtk DataFile Version 1.0
AMR-like mesh example
ASCII

DATASET UNSTRUCTURED_GRID
POINTS 12167 float
0.000000 0.000000 0.000000
0.043478 0.000000 0.000000
0.086957 0.000000 0.000000
0.130435 0.000000 0.000000
0.173913 0.000000 0.000000
0.217391 0.000000 0.000000
0.260870 0.000000 0.000000
0.304348 0.000000 0.000000
0.347826 0.000000 0.000000
0.391304 0.000000 0.000000
0.434783 0.000000 0.000000
0.478261 0.000000 0.000000
0.521739 0.000000 0.000000
0.565217 0.000000 0.000000
0.608696 0.000000 0.000000
0.652174 0.000000 0.000000
0.695652 0.000000 0.000000
0.739130 0.000000 0.000000
0.782609 0.000000 0.000000
0.826087 0.000000 0.000000
0.869565 0.000000 0.000000
0.913043 0.000000 0.000000
0.956522 0.000000 0.000000
0.000000 0.043478 0.000000
0.043478 0.043478 0.000000
0.086957 0.043478 0.000000
0.130435 0.043478 0.000000
0.173913 0.043478 0.000000
0.217391 0.043478 0.000000
0.260870 0.043478 0.000000
0.304348 0.043478 0.000000
0.347826 0.043478 0.000000
0.391304 0.043478 0.000000
0.434783 0.043478 0.000000
0.478261 0.043478 0.000000
0.521739 0.043478 0.000000
0.565217 0.043478 0.000000
0.608696 0.043478 0.000000
0.652174 0.043478 0.000000
0.695652 0.043478 0.000000
0.739130 0.043478 0.000000
0.782609 0.043478 0.000000
0.826087 0.043478 0.000000
0.869565 0.043478 0.000000
0.913043 0.043478 0.000000
0.956522 0.043478 0.000000
0.000000 0.086957 0.000000
0.043478 0.086957 0.000000
0.086957 0.086957 0.000000
0.130435 0.086957 0.000000
0.173913 0.086957 0.000000
0.217391 0.086957 0.000000
0.260870 0.086957 0.000000
0.304348 0.086957 0.000000
0.347826 0.086957 0.000000
0.391304 0.086957 0.000000
0.434783 0.086957 0.000000
0.478261 0.086957 0.000000
0.521739 0.086957 0.000000
0.565217 0.086957 0.000000
0.608696 0.086957 0.000000
0.652174 0.086957 0.000000
0.695652 0.086957 0.000000
0.739130 0.086957 0.000000
0.782609 0.086957 0.000000
0.826087 0.086957 0.000000
0.869565 0.086957 0.000000
0.913043 0.086957 0.000000
0.956522 0.086957 0.000000
0.000000 0.130435 0.000000
0.043478 0.130435 0.000000
0.086957 0.130435 0.000000
0.130435 0.130435 0.000000
0.173913 0.130435 0.000000
0.217391 0.130435 0.000000
0.260870 0.130435 0.000000
0.304348 0.130435 0.000000
0.347826 0.130435 0.000000
0.391304 0.130435 0.000000
0.434783 0.130435 0.000000
0.478261 0.130435 0.000000
0.521739 0.130435 0.000000
0.565217 0.130435 0.000000
0.608696 0.130435 0.000000
0.652174 0.130435 0.000000
0.695652 0.130435 0.000000
0.739130 0.130435 0.000000
0.782609 0.130435 0.000000
0.826087 0.130435 0.000000
0.869565 0.130435 0.000000
0.913043 0.130435 0.000000
0.956522 0.130435 0.000000
0.000000 0.173913 0.000000
0.043478 0.173913 0.000000
0.086957 0.173913 0.000000
0.130435 0.173913 0.000000
0.173913 0.173913 0.000000
0.217391 0.173913 0.000000
0.260870 0.173913 0.000000
0.304348 0.173913 0.000000
0.347826 0.173913 0.000000
0.391304 0.173913 0.000000
0.434783 0.173913 0.000000
0.478261 0.173913 0.000000
0.521739 0.173913 0.000000
0.565217 0.173913 0.000000
0.608696 0.173913 0.000000
0.652174 0.173913 0.000000
0.695652 0.173913 0.000000
0.739130 0.173913 0.000000
0.782609 0.173913 0.000000
0.826087 0.173913 0.000000
0.869565 0.173913 0.000000
0.913043 0.173913 0.000000
0.956522 0.173913 0.000000
0.000000 0.217391 0.000000
0.043478 0.217391 0.000000
0.086957 0.217391 0.000000
0.130435 0.217391 0.000000
0.173913 0.217391 0.000000
0.217391 0.217391 0.000000
0.260870 0.217391 0.000000
0.304348 0.217391 0.000000
0.347826 0.217391 0.000000
0.391304 0.217391 0.000000
0.434783 0.217391 0.000000
0.478261 0.217391 0.000000
0.521739 0.217391 0.000000
0.565217 0.217391 0.000000
0.608696 0.217391 0.000000
0.652174 0.217391 0.000000
0.695652 0.217391 0.000000
0.739130 0.217391 0.000000
0.782609 0.217391 0.000000
0.826087 0.217391 0.000000
0.869565 0.217391 0.000000
0.913043 0.217391 0.000000
0.956522 0.217391 0.000000
0.000000 0.260870 0.000000
0.043478 0.260870 0.000000
0.086957 0.260870 0.000000
0.130435 0.260870 0.000000
0.173913 0.260870 0.000000
0.217391 0.260870 0.000000
0.260870 0.260870 0.000000
0.304348 0.260870 0.000000
0.347826 0.260870 0.000000
0.391304 0.260870 0.000000
0.434783 0.260870 0.000000
0.478261 0.260870 0.000000
0.521739 0.260870 0.000000
0.565217 0.260870 0.000000
0.608696 0.260870 0.000000
0.652174 0.260870 0.000000
0.695652 0.260870 0.000000
0.739130 0.260870 0.000000
0.782609 0.260870 0.000000
0.826087 0.260870 0.000000
0.869565 0.260870 0.000000
0.913043 0.260870 0.000000
0.956522 0.260870 0.000000
0.000000 0.304348 0.000000
0.043478 0.304348 0.000000
0.086957 0.304348 0.000000
0.130435 0.304348 0.000000
0.173913 0.304348 0.000000
0.217391 0.304348 0.000000
0.260870 0.304348 0.000000
0.304348 0.304348 0.000000
0.347826 0.304348 0.000000
0.391304 0.304348 0.000000
0.434783 0.304348 0.000000
0.478261 0.304348 0.000000
0.521739 0.304348 0.000000
0.565217 0.304348 0.000000
0.608696 0.304348 0.000000
0.652174 0.304348 0.000000
0.695652 0.304348 0.000000
0.739130 0.304348 0.000000
0.782609 0.304348 0.000000
0.826087 0.304348 0.000000
0.869565 0.304348 0.000000
0.913043 0.304348 0.000000
0.956522 0.304348 0.000000
0.000000 0.347826 0.000000
0.043478 0.347826 0.000000
0.086957 0.347826 0.000000
0.130435 0.347826 0.000000
0.173913 0.347826 0.000000
0.217391 0.347826 0.000000
0.260870 0.347826 0.000000
0.304348 0.347826 0.000000
0.347826 0.347826 0.000000
0.391304 0.347826 0.000000
0.434783 0.347826 0.000000
0.478261 0.347826 0.000000
0.521739 0.347826 0.000000
0.565217 0.347826 0.000000
0.608696 0.347826 0.000000
0.652174 0.347826 0.000000
0.695652 0.347826 0.000000
0.739130 0.347826 0.000000
0.782609 0.347826 0.000000
0.826087 0.347826 0.000000
0.869565 0.347826 0.000000
0.913043 0.347826 0.000000
0.956522 0.347826 0.000000
0.000000 0.391304 0.000000
0.043478 0.391304 0.000000
0.086957 0.391304 0.000000
0.130435 0.391304 0.000000
0.173913 0.391304 0.000000
0.217391 0.391304 0.000000
0.260870 0.391304 0.000000
0.304348 0.391304 0.000000
0.347826 0.391304 0.000000
0.391304 0.391304 0.000000
0.434783 0.391304 0.000000
0.478261 0.391304 0.000000
0.521739 0.391304 0.000000
0.565217 0.391304 0.000000
0.608696 0.391304 0.000000
0.652174 0.391304 0.000000
0.695652 0.391304 0.000000
0.739130 0.391304 0.000000
0.782609 0.391304 0.000000
0.826087 0.391304 0.000000
0.869565 0.391304 0.000000
0.913043 0.391304 0.000000
0.956522 0.391304 0.000000
0.000000 0.434783 0.000000
0.043478 0.434783 0.000000
0.086957 0.434783 0.000000
0.130435 0.434783 0.000000
0.173913 0.434783 0.000000
0.217391 0.434783 0.000000
0.260870 0.434783 0.000000
0.304348 0.434783 0.000000
0.347826 0.434783 0.000000
0.391304 0.434783 0.000000
0.434783 0.434783 0.000000
0.478261 0.434783 0.000000
0.521739 0.434783 0.000000
0.565217 0.434783 0.000000
0.608696 0.434783 0.000000
0.652174 0.434783 0.000000
0.695652 0.434783 0.000000
0.739130 0.434783 0.000000
0.782609 0.434783 0.000000
0.826087 0.434783 0.000000
0.869565 0.434783 0.000000
0.913043 0.434783 0.000000
0.956522 0.434783 0.000000
0.000000 0.478261 0.000000
0.043478 0.478261 0.000000
0.086957 0.478261 0.000000
0.130435 0.478261 0.000000
0.173913 0.478261 0.000000
0.217391 0.478261 0.000000
0.260870 0.478261 0.000000
0.304348 0.478261 0.000000
0.347826 0.478261 0.000000
0.391304 0.478261 0.000000
0.434783 0.478261 0.000000
0.478261 0.478261 0.000000
0.521739 0.478261 0.000000
0.565217 0.478261 0.000000
0.608696 0.478261 0.000000
0.652174 0.478261 0.000000
0.695652 0.478261 0.000000
0.739130 0.478261 0.000000
0.782609 0.478261 0.000000
0.826087 0.478261 0.000000
0.869565 0.478261 0.000000
0.913043 0.478261 0.000000
0.956522 0.478261 0.000000
0.000000 0.521739 0.000000
0.043478 0.521739 0.000000
0.086957 0.521739 0.000000
0.130435 0.521739 0.000000
0.173913 0.521739 0.000000
0.217391 0.521739 0.000000
0.260870 0.521739 0.000000
0.304348 0.521739 0.000000
0.347826 0.521739 0.000000
0.391304 0.521739 0.000000
0.434783 0.521739 0.000000
0.478261 0.521739 0.000000
0.521739 0.521739 0.000000
0.565217 0.521739 0.000000
0.608696 0.521739 0.000000
0.652174 0.521739 0.000000
0.695652 0.521739 0.000000
0.739130 0.521739 0.000000
0.782609 0.521739 0.000000
0.826087 0.521739 0.000000
0.869565 0.521739 0.000000
0.913043 0.521739 0.000000
0.956522 0.521739 0.000000
0.000000 0.565217 0.000000
0.043478 0.565217 0.000000
0.086957 0.565217 0.000000
0.130435 0.565217 0.000000
0.173913 0.565217 0.000000
0.217391 0.565217 0.000000
0.260870 0.565217 0.000000
0.304348 0.565217 0.000000
0.347826 0.565217 0.000000
0.391304 0.565217 0.000000
0.434783 0.565217 0.000000
0.478261 0.565217 0.000000
0.521739 0.565217 0.000000
0.565217 0.565217 0.000000
0.608696 0.565217 0.000000
0.652174 0.565217 0.000000
0.695652 0.565217 0.000000
0.739130 0.565217 0.000000
0.782609 0.565217 0.000000
0.826087 0.565217 0.000000
0.869565 0.565217 0.000000
0.913043 0.565217 0.000000
0.956522 0.565217 0.000000
0.000000 0.608696 0.000000
0.043478 0.608696 0.000000
0.086957 0.608696 0.000000
0.130435 0.608696 0.000000
0.173913 0.608696 0.000000
0.217391 0.608696 0.000000
0.260870 0.608696 0.000000
0.304348 0.608696 0.000000
0.347826 0.608696 0.000000
0.391304 0.608696 0.000000
0.434783 0.608696 0.000000
0.478261 0.608696 0.000000
0.521739 0.608696 0.000000
0.565217 0.608696 0.000000
0.608696 0.608696 0.000000
0.652174 0.608696 0.000000
0.695652 0.608696 0.000000
0.739130 0.608696 0.000000
0.782609 0.608696 0.000000
0.826087 0.608696 0.000000
0.869565 0.608696 0.000000
0.913043 0.608696 0.000000
0.956522 0.608696 0.000000
0.000000 0.652174 0.000000
0.043478 0.652174 0.000000
0.086957 0.652174 0.000000
0.130435 0.652174 0.000000
0.173913 0.652174 0.000000
0.217391 0.652174 0.000000
0.260870 0.652174 0.000000
0.304348 0.652174 0.000000
0.347826 0.652174 0.000000
0.391304 0.652174 0.000000
0.434783 0.652174 0.000000
0.478261 0.652174 0.000000
0.521739 0.652174 0.000000
0.565217 0.652174 0.000000
0.608696 0.652174 0.000000
0.652174 0.652174 0.000000
0.695652 0.652174 0.000000
0.739130 0.652174 0.000000
0.782609 0.652174 0.000000
0.826087 0.652174 0.000000
0.869565 0.652174 0.000000
[...]
POINT_DATA 12167
SCALARS scalars float
LOOKUP_TABLE default
17.320508
16.833444
16.378094
15.957173
15.573473
15.229808
14.928943
14.673511
14.465917
14.308245
14.202158
14.148817
14.148817
14.202158
14.308245
14.465917
14.673511
14.928943
15.229808
15.573473
15.957173
16.378094
16.833444
16.833444
16.331861
15.862118
15.427126
15.029901
14.673511
14.360995
14.095274
13.879035
13.714617
13.603903
13.548206
13.548206
13.603903
13.714617
13.879035
14.095274
14.360995
14.673511
15.029901
15.427126
15.862119
16.331861
16.378094
15.862118
15.378034
14.928943
14.518094
14.148817
13.824446
13.548206
13.323090
13.151724
13.036230
12.978097
12.978097
13.036230
13.151724
13.323090
13.548206
13.824446
14.148817
14.518094
14.928943
15.378034
15.862118
15.957173
15.427126
14.928943
14.465917
14.041526
13.659372
13.323090
13.036230
12.802114
12.623680
12.503308
12.442685
12.442685
12.503308
12.623680
12.802116
13.036230
13.323090
13.659372
14.041526
14.465917
14.928943
15.427126
15.573473
15.029901
14.518094
14.041526
13.603902
13.209093
12.861043
12.563637
12.320546
12.135031
12.009763
11.946635
11.946635
12.009763
12.135031
12.320546
12.563637
12.861043
13.209093
13.603902
14.041525
14.518094
15.029901
15.229808
14.673511
14.148817
13.659372
13.209093
12.802114
12.442685
12.135031
11.883174
11.690722
11.560640
11.495047
11.495047
11.560640
11.690722
11.883174
12.135031
12.442685
12.802114
13.209093
13.659372
14.148818
14.673511
14.928943
14.360995
13.824446
13.323090
12.861043
12.442685
12.072560
11.755223
11.495047
11.295984
11.161302
11.093348
11.093348
11.161302
11.295984
11.495047
11.755223
12.072560
12.442685
12.861043
13.323090
13.824446
14.360995
14.673511
14.095274
13.548206
13.036230
12.563637
12.135031
11.755223
11.429077
11.161302
10.956177
10.817266
10.747137
10.747137
10.817266
10.956177
11.161302
11.429077
11.755223
12.135031
12.563637
13.036230
13.548206
14.095274
14.465917
13.879035
13.323090
12.802114
12.320546
11.883174
11.495047
11.161302
10.886942
10.676547
10.533949
10.461922
10.461922
10.533949
10.676547
10.886943
11.161302
11.495047
11.883174
12.320546
12.802114
13.323090
13.879035
14.308245
13.714617
13.151724
12.623680
12.135031
11.690722
11.295984
10.956177
10.676547
10.461922
10.316356
10.242800
10.242800
10.316356
10.461922
10.676547
10.956177
11.295984
11.690722
12.135031
12.623678
13.151724
13.714617
14.202158
13.603903
13.036230
12.503308
12.009763
11.560640
11.161302
10.817266
10.533949
10.316356
10.168710
10.094075
10.094075
10.168710
10.316356
10.533949
10.817266
11.161302
11.560640
12.009763
12.503307
13.036230
13.603903
14.148817
13.548206
12.978097
12.442685
11.946635
11.495047
11.093348
10.747137
10.461922
10.242800
10.094075
10.018886
10.018886
10.094075
10.242798
10.461922
10.747137
11.093348
11.495047
11.946635
12.442685
12.978097
13.548206
14.148817
13.548206
12.978097
12.442685
11.946635
11.495047
11.093348
10.747137
10.461922
10.242800
10.094075
10.018886
10.018886
10.094075
10.242798
10.461922
10.747137
11.093348
11.495047
11.946635
12.442685
12.978097
13.548206
14.202158
13.603903
13.036230
12.503308
12.009763
11.560640
11.161302
10.817266
10.533949
10.316356
10.168710
10.094075
10.094075
10.168710
10.316356
10.533949
10.817266
11.161302
11.560640
12.009763
12.503307
13.036230
13.603903
14.308245
13.714617
13.151724
12.623680
12.135031
11.690722
11.295984
10.956177
10.676547
10.461922
10.316356
10.242798
10.242798
10.316356
10.461922
10.676547
10.956177
11.295984
11.690722
12.135031
12.623678
13.151724
13.714617
14.465917
13.879035
13.323090
12.802116
12.320546
11.883174
11.495047
11.161302
10.886943
10.676547
10.533949
10.461922
10.461922
10.533949
10.676547
10.886943
11.161302
11.495047
11.883174
12.320546
12.802114
13.323090
13.879035
14.673511
14.095274
13.548206
13.036230
12.563637
12.135031
11.755223
11.429077
11.161302
10.956177
10.817266
10.747137
10.747137
10.817266
10.956177
11.161302
11.429077
11.755223
12.135031
12.563637
13.036230
13.548206
14.095274
14.928943
14.360995
13.824446
13.323090
12.861043
12.442685
12.072560
11.755223
11.495047
11.295984
11.161302
11.093348
11.093348
11.161302
11.295984
11.495047
11.755223
12.072560
12.442685
12.861043
13.323090
13.824446
14.360995
15.229808
14.673511
14.148817
13.659372
13.209093
12.802114
12.442685
12.135031
11.883174
11.690722
11.560640
11.495047
11.495047
11.560640
11.690722
11.883174
12.135031
12.442685
12.802114
13.209093
13.659372
14.148818
14.673511
15.573473
15.029901
14.518094
14.041526
13.603902
13.209093
12.861043
12.563637
12.320546
12.135031
12.009763
11.946635
11.946635
12.009763
12.135031
12.320546
12.563637
12.861043
13.209093
13.603902
14.041525
14.518094
15.029901
15.957173
15.427126
14.928943
14.465917
14.041525
13.659372
13.323090
13.036230
12.802114
12.623678
12.503307
12.442685
12.442685
12.503307
12.623678
12.802114
13.036230
13.323090
13.659372
14.041525
14.465917
14.928943
15.427126
16.378094
15.862119
15.378034
14.928943
14.518094
14.148818
13.824446
13.548206
13.323090
13.151724
13.036230
12.978097
12.978097
13.036230
13.151724
13.323090
13.548206
13.824446
14.148818
14.518094
14.928943
15.378035
15.862119
16.833444
16.331861
15.862118
15.427126
15.029901
14.673511
14.360995
14.095274
13.879035
13.714617
13.603903
13.548206
13.548206
13.603903
13.714617
13.879035
14.095274
14.360995
14.673511
15.029901
15.427126
15.862119
16.331861
16.833444
16.331861
15.862118
15.427126
15.029901
14.673511
14.360995
14.095274
13.879035
13.714617
13.603903
13.548206
13.548206
13.603903
13.714617
13.879035
14.095274
14.360995
14.673511
15.029901
15.427126
15.862119
16.331861
16.331861
15.814377
15.328785
14.878207
14.465917
14.095274
13.769642
13.492279
13.266214
13.094105
12.978097
12.919704
12.919704
12.978097
13.094105
13.266214
13.492279
13.769642
14.095274
14.465917
14.878207
15.328785
15.814377
15.862118
15.328785
14.827298
14.360995
13.933409
13.548206
13.209094
12.919703
12.683437
12.503308
12.381766
12.320546
12.320546
12.381766
12.503308
12.683437
12.919703
13.209094
13.548206
13.933409
14.360995
14.827298
15.328785
15.427126
14.878207
14.360995
13.879035
13.436120
13.036230
12.683437
12.381767
12.135031
11.946636
11.819372
11.755223
11.755223
11.819372
11.946636
12.135031
12.381767
12.683437
13.036230
13.436120
13.879035
14.360995
14.878207
15.029901
14.465917
13.933409
13.436120
12.978097
12.563637
12.197182
11.883174
11.625863
11.429077
11.295984
11.228845
11.228845
11.295984
11.429077
11.625863
11.883174
12.197182
12.563637
12.978097
13.436118
13.933409
14.465917
14.673511
14.095274
13.548206
13.036230
12.563637
12.135031
11.755223
11.429077
11.161302
10.956177
10.817266
10.747137
10.747137
10.817266
10.956177
11.161302
11.429077
11.755223
12.135031
12.563637
13.036230
13.548206
14.095274
14.360995
13.769642
13.209094
12.683437
12.197182
11.755223
11.362725
11.024977
10.747137
10.533949
10.389395
10.316358
10.316358
10.389395
10.533949
10.747137
11.024977
11.362725
11.755223
12.197182
12.683437
13.209094
13.769642
14.095274
13.492279
12.919703
12.381767
11.883174
11.429077
11.024977
10.676547
10.389395
10.168710
10.018886
9.943128
9.943128
10.018886
10.168710
10.389395
10.676547
11.024977
11.429077
11.883174
12.381766
12.919704
13.492279
13.879035
13.266214
12.683437
12.135031
11.625863
11.161302
10.747137
10.389395
10.094075
9.866788
9.712308
9.634140
9.634140
9.712308
9.866788
10.094076
10.389395
10.747137
11.161302
11.625863
12.135031
12.683437
13.266214
13.714617
13.094105
12.503308
11.946636
11.429077
10.956177
10.533949
10.168710
9.866788
9.634140
9.475868
9.395732
9.395732
9.475868
9.634140
9.866788
10.168710
10.533949
10.956177
11.429077
11.946635
12.503308
13.094105
13.603903
12.978097
12.381766
11.819372
11.295984
10.817266
10.389395
10.018886
9.712308
9.475868
9.314907
9.233375
9.233375
9.314907
9.475867
9.712308
10.018886
10.389395
10.817266
11.295984
11.819371
12.381767
12.978097
13.548206
12.919704
12.320546
11.755223
11.228845
10.747137
10.316358
9.943128
9.634140
9.395732
9.233375
9.151115
9.151115
9.233374
9.395732
9.634140
9.943128
10.316358
10.747137
11.228845
11.755222
12.320546
12.919704
13.548206
12.919704
12.320546
11.755223
11.228845
10.747137
10.316358
9.943128
9.634140
9.395732
9.233375
9.151115
9.151115
9.233374
9.395732
9.634140
9.943128
10.316358
10.747137
11.228845
11.755222
12.320546
12.919704
13.603903
12.978097
12.381766
11.819372
11.295984
10.817266
10.389395
10.018886
9.712308
9.475868
9.314907
9.233374
9.233374
9.314907
9.475867
9.712308
10.018886
10.389395
10.817266
11.295984
11.819371
12.381767
12.978097
13.714617
13.094105
12.503308
11.946636
11.429077
10.956177
10.533949
10.168710
9.866788
9.634140
9.475867
9.395732
9.395732
9.475867
9.634140
9.866788
10.168710
10.533949
10.956177
11.429077
11.946635
12.503308
13.094105
13.879035
13.266214
12.683437
12.135031
11.625863
11.161302
10.747137
10.389395
10.094076
9.866788
9.712308
9.634140
9.634140
9.712308
9.866788
10.094076
10.389395
10.747137
11.161302
11.625863
12.135031
12.683437
13.266214
14.095274
13.492279
12.919703
12.381767
11.883174
11.429077
11.024977
10.676547
10.389395
10.168710
10.018886
9.943128
9.943128
10.018886
10.168710
10.389395
10.676547
11.024977
11.429077
11.883174
12.381766
12.919704
13.492279
14.360995
13.769642
13.209094
12.683437
12.197182
11.755223
11.362725
11.024977
10.747137
10.533949
10.389395
10.316358
10.316358
10.389395
10.533949
10.747137
11.024977
11.362725
11.755223
12.197182
12.683437
13.209094
13.769642
14.673511
14.095274
13.548206
13.036230
12.563637
12.135031
11.755223
11.429077
11.161302
10.956177
10.817266
10.747137
10.747137
10.817266
10.956177
11.161302
11.429077
11.755223
12.135031
12.563637
13.036230
13.548206
14.095274
15.029901
14.465917
13.933409
13.436120
12.978097
12.563637
12.197182
11.883174
11.625863
11.429077
11.295984
11.228845
11.228845
11.295984
11.429077
11.625863
11.883174
12.197182
12.563637
12.978097
13.436118
13.933409
14.465917
15.427126
14.878207
14.360995
13.879035
13.436118
13.036230
12.683437
12.381766
12.135031
11.946635
11.819371
11.755222
11.755222
11.819371
11.946635
12.135031
12.381766
12.683437
13.036230
13.436118
13.879035
14.360995
14.878207
15.862119
15.328785
14.827298
14.360995
13.933409
13.548206
13.209094
12.919704
12.683437
12.503308
12.381767
12.320546
12.320546
12.381767
12.503308
12.683437
12.919704
13.209094
13.548206
13.933409
14.360995
14.827298
15.328785
16.331861
15.814377
15.328785
14.878207
14.465917
14.095274
13.769642
13.492279
13.266214
13.094105
12.978097
12.919704
12.919704
12.978097
13.094105
13.266214
13.492279
13.769642
14.095274
14.465917
14.878207
15.328785
15.814377
16.378094
15.862118
15.378034
14.928943
14.518094
14.148817
13.824446
13.548206
13.323090
13.151724
13.036230
12.978097
12.978097
13.036230
13.151724
13.323090
13.548206
13.824446
14.148817
14.518094
14.928943
15.378035
15.862118
15.862118
15.328785
14.827298
14.360995
13.933409
13.548206
13.209094
12.919703
12.683437
12.503308
12.381766
12.320546
12.320546
12.381766
12.503308
12.683437
12.919703
13.209094
13.548206
13.933409
14.360995
14.827298
15.328785
15.378034
14.827298
14.308245
13.824446
13.379724
12.978097
12.623680
12.320546
12.072560
11.883174
11.755223
11.690722
11.690722
11.755223
11.883174
12.072560
12.320546
12.623680
12.978097
13.379724
13.824445
14.308245
14.827298
14.928943
14.360995
13.824446
13.323090
12.861043
12.442685
12.072560
11.755223
11.495047
11.295984
11.161302
11.093348
11.093348
11.161302
11.295984
11.495047
11.755223
12.072560
12.442685
12.861043
13.323090
13.824446
14.360995
14.518094
13.933409
13.379724
12.861043
12.381766
11.946635
11.560640
11.228845
10.956177
10.747136
10.605488
10.533949
10.533949
10.605488
10.747136
10.956177
11.228845
11.560640
11.946635
12.381766
12.861043
13.379724
13.933409
14.148817
13.548206
12.978097
12.442685
11.946635
11.495047
11.093348
10.747137
10.461922
10.242798
10.094075
10.018886
10.018886
10.094075
10.242798
10.461922
10.747137
11.093348
11.495047
11.946635
12.442685
12.978097
13.548206
13.824446
13.209094
12.623680
12.072560
11.560640
11.093348
10.676547
10.316356
10.018886
9.789852
9.634140
9.555331
9.555331
9.634139
9.789852
10.018886
10.316356
10.676547
11.093348
11.560640
12.072560
12.623680
13.209094
13.548206
12.919703
12.320546
11.755223
11.228845
10.747137
10.316356
9.943128
9.634140
9.395732
9.233374
9.151115
9.151115
9.233374
9.395732
9.634140
9.943128
10.316356
10.747137
11.228845
11.755222
12.320546
12.919703
13.323090
12.683437
12.072560
11.495047
10.956177
10.461922
10.018886
9.634140
9.314907
9.068110
8.899778
8.814406
8.814406
8.899778
9.068110
9.314907
9.634140
10.018886
10.461922
10.956177
11.495047
12.072560
12.683437
13.151724
12.503308
11.883174
11.295984
10.747136
10.242798
9.789852
9.395732
9.068110
8.814406
8.641133
8.553181
8.553181
8.641133
8.814406
9.068111
9.395732
9.789852
10.242798
10.747136
11.295984
11.883174
12.503308
13.036230
12.381766
11.755223
11.161302
10.605488
10.094075
9.634140
9.233374
8.899778
8.641133
8.464314
8.374504
8.374504
8.464314
8.641133
8.899778
9.233374
9.634140
10.094075
10.605488
11.161302
11.755223
12.381766
12.978097
12.320546
11.690722
11.093348
10.533949
10.018886
9.555331
9.151115
8.814406
8.553181
8.374504
8.283721
8.283721
8.374504
8.553181
8.814407
9.151115
9.555331
10.018886
10.533949
11.093348
11.690722
12.320546
12.978097
12.320546
11.690722
11.093348
10.533949
10.018886
9.555331
9.151115
8.814406
8.553181
8.374504
8.283721
8.283721
8.374504
8.553181
8.814407
9.151115
9.555331
10.018886
10.533949
11.093348
11.690722
12.320546
13.036230
12.381766
11.755223
11.161302
10.605488
10.094075
9.634139
9.233374
8.899778
8.641133
8.464314
8.374504
8.374504
8.464314
8.641133
8.899778
9.233374
9.634139
10.094075
10.605488
11.161302
11.755223
12.381766
13.151724
12.503308
11.883174
11.295984
10.747136
10.242798
9.789852
9.395732
9.068110
8.814406
8.641133
8.553181
8.553181
8.641133
8.814406
9.068111
9.395732
9.789852
10.242798
10.747136
11.295984
11.883174
12.503308
13.323090
12.683437
12.072560
11.495047
10.956177
10.461922
10.018886
9.634140
9.314907
9.068111
8.899778
8.814407
8.814407
8.899778
9.068111
9.314907
9.634140
10.018886
10.461922
10.956177
11.495047
12.072560
12.683437
13.548206
12.919703
12.320546
11.755223
11.228845
10.747137
10.316356
9.943128
9.634140
9.395732
9.233374
9.151115
9.151115
9.233374
9.395732
9.634140
9.943128
10.316356
10.747137
11.228845
11.755222
12.320546
12.919703
13.824446
13.209094
12.623680
12.072560
11.560640
11.093348
10.676547
10.316356
10.018886
9.789852
9.634140
9.555331
9.555331
9.634139
9.789852
10.018886
10.316356
10.676547
11.093348
11.560640
12.072560
12.623680
13.209094
14.148817
13.548206
12.978097
12.442685
11.946635
11.495047
11.093348
10.747137
10.461922
10.242798
10.094075
10.018886
10.018886
10.094075
10.242798
10.461922
10.747137
11.093348
11.495047
11.946635
12.442685
12.978097
13.548206
14.518094
13.933409
13.379724
12.861043
12.381766
11.946635
11.560640
11.228845
10.956177
10.747136
10.605488
10.533949
10.533949
10.605488
10.747136
10.956177
11.228845
11.560640
11.946635
12.381766
12.861043
13.379724
13.933409
14.928943
14.360995
13.824445
13.323090
12.861043
12.442685
12.072560
11.755222
11.495047
11.295984
11.161302
11.093348
11.093348
11.161302
11.295984
11.495047
11.755222
12.072560
12.442685
12.861043
13.323089
13.824446
14.360995
15.378035
14.827298
14.308245
13.824446
13.379724
12.978097
12.623680
12.320546
12.072560
11.883174
11.755223
11.690722
11.690722
11.755223
11.883174
12.072560
12.320546
12.623680
12.978097
13.379724
13.824446
14.308246
14.827298
15.862118
15.328785
14.827298
14.360995
13.933409
13.548206
13.209094
12.919703
12.683437
12.503308
12.381766
12.320546
12.320546
12.381766
12.503308
12.683437
12.919703
13.209094
13.548206
13.933409
14.360995
14.827298
15.328785
15.957173
15.427126
14.928943
14.465917
14.041526
13.659372
13.323090
13.036230
12.802116
12.623680
12.503308
12.442685
12.442685
12.503308
12.623680
12.802116
13.036230
13.323090
13.659372
14.041526
14.465917
14.928943
15.427126
15.427126
14.878207
14.360995
13.879035
13.436120
13.036230
12.683437
12.381766
12.135031
11.946636
11.819372
11.755223
11.755223
11.819372
11.946636
12.135031
12.381766
12.683437
13.036230
13.436120
13.879035
14.360995
14.878207
14.928943
14.360995
13.824446
13.323090
12.861043
12.442685
12.072560
11.755223
11.495047
11.295984
11.161302
11.093348
11.093348
11.161302
11.295984
11.495047
11.755223
12.072560
12.442685
12.861043
13.323089
13.824446
14.360995
14.465917
13.879035
13.323090
12.802116
12.320546
11.883174
11.495047
11.161304
10.886943
10.676547
10.533949
10.461922
10.461922
10.533949
10.676547
10.886943
11.161304
11.495047
11.883174
12.320546
12.802114
13.323090
13.879035
14.041526
13.436120
12.861043
12.320546
11.819371
11.362725
10.956177
10.605488
10.316356
10.094075
9.943128
9.866787
9.866787
9.943128
10.094075
10.316356
10.605488
10.956177
11.362725
11.819371
12.320545
12.861043
13.436120
13.659372
13.036230
12.442685
11.883174
11.362725
10.886942
10.461922
10.094075
9.789852
9.555331
9.395732
9.314907
9.314907
9.395732
9.555331
9.789852
10.094075
10.461922
10.886942
11.362725
11.883174
12.442685
13.036230
13.323090
12.683437
12.072560
11.495047
10.956177
10.461922
10.018886
9.634140
9.314907
9.068111
8.899778
8.814407
8.814407
8.899778
9.068111
9.314907
9.634140
10.018886
10.461922
10.956177
11.495047
12.072560
12.683437
13.036230
12.381766
11.755223
11.161304
10.605488
10.094075
9.634140
9.233375
8.899778
8.641134
8.464314
8.374504
8.374504
8.464314
8.641133
8.899778
9.233375
9.634140
10.094075
10.605488
11.161302
11.755223
12.381766
12.802116
12.135031
11.495047
10.886943
10.316356
9.789852
9.314907
8.899778
8.553181
8.283721
8.099103
8.005197
8.005197
8.099103
8.283721
8.553181
8.899778
9.314907
9.789852
10.316356
10.886942
11.495047
12.135031
12.623680
11.946636
11.295984
10.676547
10.094075
9.555331
9.068111
8.641134
8.283721
8.005197
7.814001
7.716626
7.716626
7.814001
8.005197
8.283722
8.641134
9.068111
9.555331
10.094075
10.676547
11.295984
11.946636
12.503308
11.819372
11.161302
10.533949
9.943128
9.395732
8.899778
8.464314
8.099103
7.814001
7.618007
7.518094
7.518094
7.618006
7.814001
8.099103
8.464314
8.899778
9.395732
9.943128
10.533949
11.161304
11.819372
12.442685
11.755223
11.093348
10.461922
9.866787
9.314907
8.814407
8.374504
8.005197
7.716626
7.518094
7.416836
7.416836
7.518094
7.716626
8.005197
8.374504
8.814407
9.314907
9.866787
10.461922
11.093349
11.755223
12.442685
11.755223
11.093348
10.461922
9.866787
9.314907
8.814407
8.374504
8.005197
7.716626
7.518094
7.416836
7.416836
7.518094
7.716626
8.005197
8.374504
8.814407
9.314907
9.866787
10.461922
11.093349
11.755223
12.503308
11.819372
11.161302
10.533949
9.943128
9.395732
8.899778
8.464314
8.099103
7.814001
7.618006
7.518094
7.518094
7.618006
7.814000
8.099103
8.464314
8.899778
9.395732
9.943128
10.533949
11.161304
11.819372
12.623680
11.946636
11.295984
10.676547
10.094075
9.555331
9.068111
8.641133
8.283721
8.005197
7.814001
7.716626
7.716626
7.814000
8.005196
8.283721
8.641133
9.068111
9.555331
10.094075
10.676547
11.295984
11.946636
12.802116
12.135031
11.495047
10.886943
10.316356
9.789852
9.314907
8.899778
8.553181
8.283722
8.099103
8.005197
8.005197
8.099103
8.283721
8.553181
8.899778
9.314907
9.789852
10.316356
10.886942
11.495048
12.135031
13.036230
12.381766
11.755223
11.161304
10.605488
10.094075
9.634140
9.233375
8.899778
8.641134
8.464314
8.374504
8.374504
8.464314
8.641133
8.899778
9.233375
9.634140
10.094075
10.605488
11.161302
11.755223
12.381766
13.323090
12.683437
12.072560
11.495047
10.956177
10.461922
10.018886
9.634140
9.314907
9.068111
8.899778
8.814407
8.814407
8.899778
9.068111
9.314907
9.634140
10.018886
10.461922
10.956177
11.495047
12.072560
12.683437
13.659372
13.036230
12.442685
11.883174
11.362725
10.886942
10.461922
10.094075
9.789852
9.555331
9.395732
9.314907
9.314907
9.395732
9.555331
9.789852
10.094075
10.461922
10.886942
11.362725
11.883174
12.442685
13.036230
14.041526
13.436120
12.861043
12.320546
11.819371
11.362725
10.956177