# vtk DataFile Version 1.0
Data values for stock
ASCII

DATASET POLYDATA
POINTS 347 float
242 44.625 0 
243 45.750 0 
245 46.000 0 
246 45.875 0 
250 45.500 0 
251 44.375 0 
252 44.375 0 
253 43.750 0 
256 43.875 0 
258 43.625 0 
263 42.250 0 
264 42.250 0 
265 41.875 0 
266 41.875 0 
267 41.750 0 
270 41.750 0 
271 41.750 0 
273 42.000 0 
274 43.750 0 
277 44.125 0 
284 44.125 0 
285 43.750 0 
286 43.125 0 
287 42.625 0 
288 44.500 0 
291 44.000 0 
292 43.375 0 
293 43.625 0 
294 45.000 0 
295 44.500 0 
298 44.875 0 
299 46.125 0 
300 46.000 0 
301 45.750 0 
302 46.000 0 
305 47.750 0 
306 50.875 0 
307 50.750 0 
308 49.750 0 
309 49.875 0 
312 50.250 0 
313 49.125 0 
314 49.875 0 
315 52.000 0 
316 51.500 0 
319 51.000 0 
320 52.875 0 
321 51.875 0 
322 52.750 0 
323 51.875 0 
326 52.000 0 
327 53.125 0 
328 55.125 0 
330 55.750 0 
333 54.375 0 
334 53.875 0 
335 53.125 0 
336 53.750 0 
337 53.500 0 
340 53.750 0 
342 53.875 0 
343 53.625 0 
347 57.375 0 
348 56.000 0 
349 56.875 0 
350 57.500 0 
351 59.750 0 
354 58.375 0 
355 58.625 0 
356 59.250 0 
357 58.625 0 
358 58.625 0 
363 58.625 0 
364 58.625 0 
365 58.625 0 
369 59.000 0 
370 59.500 0 
371 58.500 0 
375 59.250 0 
389 58.625 0 
390 58.250 0 
391 56.500 0 
392 57.125 0 
393 57.625 0 
396 56.750 0 
397 56.625 0 
398 56.250 0 
399 55.750 0 
400 52.000 0 
404 53.750 0 
405 53.250 0 
406 52.875 0 
410 54.000 0 
412 54.500 0 
413 52.750 0 
418 53.625 0 
419 53.500 0 
420 52.875 0 
421 52.875 0 
425 53.625 0 
427 52.625 0 
428 52.625 0 
431 52.250 0 
433 55.375 0 
435 55.875 0 
440 58.250 0 
442 57.125 0 
445 58.625 0 
446 58.250 0 
447 57.250 0 
448 56.375 0 
449 53.875 0 
452 53.625 0 
453 52.625 0 
454 53.375 0 
455 54.625 0 
460 53.375 0 
461 53.125 0 
462 53.125 0 
463 52.625 0 
466 53.000 0 
467 52.875 0 
468 52.375 0 
469 53.875 0 
470 53.000 0 
473 53.375 0 
474 53.438 0 
475 52.250 0 
476 58.375 0 
478 58.750 0 
480 59.250 0 
481 58.500 0 
483 57.125 0 
484 57.500 0 
487 58.000 0 
488 58.375 0 
489 57.750 0 
490 57.125 0 
494 57.000 0 
495 58.000 0 
496 57.250 0 
497 57.250 0 
501 58.500 0 
502 61.250 0 
503 60.750 0 
504 61.375 0 
505 62.125 0 
508 61.750 0 
509 63.125 0 
510 63.625 0 
511 63.250 0 
512 63.625 0 
516 63.000 0 
517 63.500 0 
518 62.000 0 
519 61.000 0 
522 62.625 0 
523 62.625 0 
525 62.000 0 
529 63.750 0 
530 65.000 0 
531 63.750 0 
532 62.875 0 
533 62.375 0 
536 61.625 0 
537 61.000 0 
538 62.000 0 
539 60.875 0 
540 59.875 0 
543 61.500 0 
545 60.375 0 
546 58.750 0 
551 56.250 0 
552 57.000 0 
553 56.750 0 
554 56.625 0 
557 55.625 0 
558 55.750 0 
559 56.750 0 
560 58.250 0 
561 56.875 0 
564 56.875 0 
565 55.625 0 
566 55.875 0 
567 60.250 0 
568 61.375 0 
571 62.250 0 
572 62.375 0 
574 62.250 0 
575 61.875 0 
578 62.875 0 
579 62.250 0 
580 63.000 0 
581 63.125 0 
582 62.375 0 
585 63.250 0 
586 64.500 0 
587 64.250 0 
588 64.625 0 
589 63.750 0 
592 64.250 0 
593 64.625 0 
594 64.875 0 
595 66.250 0 
596 68.125 0 
599 67.750 0 
600 67.625 0 
601 67.375 0 
602 69.625 0 
603 70.000 0 
606 69.375 0 
607 69.500 0 
608 68.500 0 
609 67.875 0 
610 67.250 0 
614 67.500 0 
615 67.500 0 
616 67.875 0 
617 67.875 0 
620 67.875 0 
621 69.125 0 
622 69.750 0 
624 71.000 0 
627 70.375 0 
628 70.250 0 
629 69.500 0 
630 69.625 0 
631 69.125 0 
634 69.000 0 
635 69.000 0 
636 68.500 0 
637 69.500 0 
638 69.625 0 
641 68.875 0 
642 68.375 0 
643 69.125 0 
644 68.750 0 
645 71.125 0 
648 71.500 0 
649 71.625 0 
650 73.125 0 
651 72.250 0 
652 73.000 0 
655 73.250 0 
656 74.500 0 
657 75.375 0 
658 75.000 0 
659 74.625 0 
662 73.000 0 
663 73.000 0 
665 74.125 0 
666 76.000 0 
669 75.250 0 
670 73.875 0 
671 74.250 0 
672 73.375 0 
673 71.125 0 
676 71.875 0 
677 73.000 0 
683 72.875 0 
685 72.750 0 
697 70.625 0 
698 70.625 0 
699 70.750 0 
700 69.500 0 
701 71.375 0 
704 71.375 0 
705 71.625 0 
706 71.250 0 
707 70.125 0 
708 71.375 0 
711 70.750 0 
712 69.750 0 
713 70.250 0 
714 70.500 0 
715 70.125 0 
718 71.625 0 
719 70.750 0 
720 73.625 0 
721 73.500 0 
722 73.500 0 
727 72.875 0 
728 74.375 0 
729 73.500 0 
733 73.750 0 
734 74.375 0 
735 74.000 0 
736 75.125 0 
739 75.500 0 
740 76.625 0 
741 76.000 0 
742 76.000 0 
743 76.375 0 
748 77.250 0 
749 76.500 0 
753 74.250 0 
755 72.375 0 
756 72.375 0 
757 72.500 0 
760 71.750 0 
761 72.250 0 
762 73.625 0 
763 74.375 0 
764 74.625 0 
768 74.250 0 
769 74.250 0 
774 74.875 0 
775 75.625 0 
776 75.500 0 
782 74.250 0 
783 74.250 0 
784 74.250 0 
785 74.875 0 
788 74.000 0 
789 75.250 0 
790 75.375 0 
791 77.250 0 
792 79.875 0 
795 80.250 0 
796 79.750 0 
797 79.750 0 
798 80.625 0 
799 81.125 0 
802 82.125 0 
803 81.500 0 
804 81.750 0 
805 83.500 0 
806 82.625 0 
809 83.500 0 
810 82.250 0 
811 81.625 0 
812 83.375 0 
813 83.625 0 
816 85.000 0 
817 84.500 0 
818 83.000 0 
819 82.375 0 
820 82.125 0 
823 82.875 0 
824 83.000 0 
825 84.000 0 
827 84.000 0 
830 86.000 0 
831 86.750 0 
832 87.125 0 
833 86.375 0 
834 86.375 0  

LINES 1 348 347
0
1
2
3
4
5
6
7
8
9
10
11
12
13
14
15
16
17
18
19
20
21
22
23
24
25
26
27
28
29
30
31
32
33
34
35
36
37
38
39
40
41
42
43
44
45
46
47
48
49
50
51
52
53
54
55
56
57
58
59
60
61
62
63
64
65
66
67
68
69
70
71
72
73
74
75
76
77
78
79
80
81
82
83
84
85
86
87
88
89
90
91
92
93
94
95
96
97
98
99
100
101
102
103
104
105
106
107
108
109
110
111
112
113
114
115
116
117
118
119
120
121
122
123
124
125
126
127
128
129
130
131
132
133
134
135
136
137
138
139
140
141
142
143
144
145
146
147
148
149
150
151
152
153
154
155
156
157
158
159
160
161
162
163
164
165
166
167
168
169
170
171
172
173
174
175
176
177
178
179
180
181
182
183
184
185
186
187
188
189
190
191
192
193
194
195
196
197
198
199
200
201
202
203
204
205
206
207
208
209
210
211
212
213
214
215
216
217
218
219
220
221
222
223
224
225
226
227
228
229
230
231
232
233
234
235
236
237
238
239
240
241
242
243
244
245
246
247
248
249
250
251
252
253
254
255
256
257
258
259
260
261
262
263
264
265
266
267
268
269
270
271
272
273
274
275
276
277
278
279
280
281
282
283
284
285
286
287
288
289
290
291
292
293
294
295
296
297
298
299
300
301
302
303
304
305
306
307
308
309
310
311
312
313
314
315
316
317
318
319
320
321
322
323
324
325
326
327
328
329
330
331
332
333
334
335
336
337
338
339
340
341
342
343
344
345
346

POINT_DATA 347
SCALARS volume float
LOOKUP_TABLE default
1557.5
2462.6
1186.1
1025.9
1323.9
2354
1759.7
2164.5
1357.2
1931.3
1329.6
1854.3
1709.1
1922.4
1299.5
1604.2
2374
1463.9
3336.9
2413.5
534.9
1337.9
1104.6
1678.5
3221.4
2068.2
1951.9
1302.8
2478.1
2718.8
2217
4339.9
4385.2
2661.5
1911.6
3962.7
10208.1
5222.7
3023
3296.6
1786.7
2516.1
2056.7
3678.4
3196.1
1453.2
3387.4
4378.7
2434.4
2331.7
2595.1
2066.6
4182
1211
2483.7
1976.8
2385.3
1865.8
1759.7
1756.7
1001
1415.9
4858.7
2429
2301.4
2953.2
5765
2835.4
2272.3
1533.1
1311.2
1311.2
1311.2
1311.2
1311.2
1844.8
2570
2379.8
1735.1
4218.7
10591.9
4089.1
2214.9
1542.9
2089.5
1827.6
2152.7
1763.8
3559.9
2008.4
1978.1
1565.6
1873.7
1494.2
2290.2
1276.9
1195.2
1652.9
1061.7
2030.9
1616.5
1721.5
1783.7
3740.1
1688.3
1883.4
3256.2
2701
1849.3
2670.4
2040.9
2982
3356.5
3164.4
4131.2
3460.4
2337.8
1930
1774.9
1308.5
1302.3
1888.2
3496.1
2628
2639
3120
2097.5
2207.7
8204.7
5660.5
3062.4
2217.2
2297.5
1908.6
1608.5
1376.6
1500.3
1041.1
1880
1985.4
1546.7
922.1
1595
5396.9
4794.6
3771.9
3740.1
2074.1
2800.8
3678.4
2292
1361.6
1504.1
1689.6
2475.9
2381.4
2344.2
1399.1
1087.7
2164.5
2778.6
1789.3
1432.4
3034.1
1557.7
2477.3
1327
1154.3
2256.8
3876
2271.1
2733.2
2788.4
1846.1
1717.4
2315.4
2698.7
2992.7
2481.2
3002.7
2478.3
1655.6
1835.1
3189.3
8247.6
3714.2
2342.2
2896.9
1261.8
1692.8
1771.4
2083.8
1354.2
2046.4
1599.9
1676.6
3013
2707.6
2445.7
1936.6
1051.1
2035.1
2945.2
4194.7
4215
2968.6
2911.3
2799.2
4826.4
4144.1
2218.4
1876.3
2471.7
2778.5
1464.2
1246.3
2030.5
1364.3
2309.2
1205.9
2903.2
2536.5
4628.9
1848.5
2745.2
3637.1
2120.6
1460.3
1764.8
1115.7
1300
2306.2
2039.8
1166.5
1720.5
2691.5
1809.2
4495.6
1804.9
2807.6
3230.1
2341.6
2040.5
1448.4
2463.4
3934.2
5216.4
3377.4
2599.2
1987.3
1249.6
2570.7
1392.4
2500
2669.6
1661.4
3242.9
2278.9
1080.1
1512.4
1269
1994.7
1346.5
1961.6
1658
1994
2049.6
1928.8
1315.6
1717.9
2471.5
2205.1
1356.5
2044.2
1885.3
2944
2407.1
1726.8
3211.9
2656.9
938.4
1355.4
1911.2
1445.2
1167.9
1994.7
2270.9
3040.5
1713
3420.8
2450.3
2275.4
2030.1
1842.6
1711.4
4766.5
3808.5
2152.1
2733
1417.8
2741.9
3292
1364.4
2505.3
1450.7
1496.4
1221.8
1696.4
1624.7
1557
1716
2206.6
1563.6
2053.2
1799.5
2050.5
2410.8
5564
5043.3
3450.6
3033.3
3128.4
2373.1
3489.7
2266.9
1771.1
2845.7
2965.2
1842.2
1988.2
2416.1
2764.1
2579.5
2028.5
1353
2971.4
2957.1
2618
1895.1
1684.6
2008.3
2428.3
2115.6
2581
1903.2
1381.4
1381.4
