# vtk DataFile Version 1.0
Flow analysis of Swiss Kitchen (Dr. Ludwig Besse ETH)

ASCII

DATASET STRUCTURED_GRID
DIMENSIONS 28 24 17
POINTS 11424 float
  0.0099999988 0.0099999988 0.0099999988
  0.050000001 0.0099999988 0.0099999988
  0.1 0.0099999988 0.0099999988
  0.30000001 0.0099999988 0.0099999988
  0.55000001 0.0099999988 0.0099999988
  0.80000001 0.0099999988 0.0099999988
  1 0.0099999988 0.0099999988
  1.3 0.0099999988 0.0099999988
  1.8 0.0099999988 0.0099999988
  2.3 0.0099999988 0.0099999988
  2.8 0.0099999988 0.0099999988
  3.0999999 0.0099999988 0.0099999988
  3.3 0.0099999988 0.0099999988
  3.55 0.0099999988 0.0099999988
  3.8 0.0099999988 0.0099999988
  4.3000002 0.0099999988 0.0099999988
  4.5 0.0099999988 0.0099999988
  4.6999998 0.0099999988 0.0099999988
  5.0999999 0.0099999988 0.0099999988
  5.5 0.0099999988 0.0099999988
  5.6999998 0.0099999988 0.0099999988
  5.9000001 0.0099999988 0.0099999988
  6.3000002 0.0099999988 0.0099999988
  6.6999998 0.0099999988 0.0099999988
  6.9000001 0.0099999988 0.0099999988
  6.9499998 0.0099999988 0.0099999988
  6.9899998 0.0099999988 0.0099999988
  7 0.0099999988 0.0099999988
  0.0099999988 0.050000001 0.0099999988
  0.050000001 0.050000001 0.0099999988
  0.1 0.050000001 0.0099999988
  0.30000001 0.050000001 0.0099999988
  0.55000001 0.050000001 0.0099999988
  0.80000001 0.050000001 0.0099999988
  1 0.050000001 0.0099999988
  1.3 0.050000001 0.0099999988
  1.8 0.050000001 0.0099999988
  2.3 0.050000001 0.0099999988
  2.8 0.050000001 0.0099999988
  3.0999999 0.050000001 0.0099999988
  3.3 0.050000001 0.0099999988
  3.55 0.050000001 0.0099999988
  3.8 0.050000001 0.0099999988
  4.3000002 0.050000001 0.0099999988
  4.5 0.050000001 0.0099999988
  4.6999998 0.050000001 0.0099999988
  5.0999999 0.050000001 0.0099999988
  5.5 0.050000001 0.0099999988
  5.6999998 0.050000001 0.0099999988
  5.9000001 0.050000001 0.0099999988
  6.3000002 0.050000001 0.0099999988
  6.6999998 0.050000001 0.0099999988
  6.9000001 0.050000001 0.0099999988
  6.9499998 0.050000001 0.0099999988
  6.9899998 0.050000001 0.0099999988
  7 0.050000001 0.0099999988
  0.0099999988 0.1 0.0099999988
  0.050000001 0.1 0.0099999988
  0.1 0.1 0.0099999988
  0.30000001 0.1 0.0099999988
  0.55000001 0.1 0.0099999988
  0.80000001 0.1 0.0099999988
  1 0.1 0.0099999988
  1.3 0.1 0.0099999988
  1.8 0.1 0.0099999988
  2.3 0.1 0.0099999988
  2.8 0.1 0.0099999988
  3.0999999 0.1 0.0099999988
  3.3 0.1 0.0099999988
  3.55 0.1 0.0099999988
  3.8 0.1 0.0099999988
  4.3000002 0.1 0.0099999988
  4.5 0.1 0.0099999988
  4.6999998 0.1 0.0099999988
  5.0999999 0.1 0.0099999988
  5.5 0.1 0.0099999988
  5.6999998 0.1 0.0099999988
  5.9000001 0.1 0.0099999988
  6.3000002 0.1 0.0099999988
  6.6999998 0.1 0.0099999988
  6.9000001 0.1 0.0099999988
  6.9499998 0.1 0.0099999988
  6.9899998 0.1 0.0099999988
  7 0.1 0.0099999988
  0.0099999988 0.25 0.0099999988
  0.050000001 0.25 0.0099999988
  0.1 0.25 0.0099999988
  0.30000001 0.25 0.0099999988
  0.55000001 0.25 0.0099999988
  0.80000001 0.25 0.0099999988
  1 0.25 0.0099999988
  1.3 0.25 0.0099999988
  1.8 0.25 0.0099999988
  2.3 0.25 0.0099999988
  2.8 0.25 0.0099999988
  3.0999999 0.25 0.0099999988
  3.3 0.25 0.0099999988
  3.55 0.25 0.0099999988
  3.8 0.25 0.0099999988
  4.3000002 0.25 0.0099999988
  4.5 0.25 0.0099999988
  4.6999998 0.25 0.0099999988
  5.0999999 0.25 0.0099999988
  5.5 0.25 0.0099999988
  5.6999998 0.25 0.0099999988
  5.9000001 0.25 0.0099999988
  6.3000002 0.25 0.0099999988
  6.6999998 0.25 0.0099999988
  6.9000001 0.25 0.0099999988
  6.9499998 0.25 0.0099999988
  6.9899998 0.25 0.0099999988
  7 0.25 0.0099999988
  0.0099999988 0.5 0.0099999988
  0.050000001 0.5 0.0099999988
  0.1 0.5 0.0099999988
  0.30000001 0.5 0.0099999988
  0.55000001 0.5 0.0099999988
  0.80000001 0.5 0.0099999988
  1 0.5 0.0099999988
  1.3 0.5 0.0099999988
  1.8 0.5 0.0099999988
  2.3 0.5 0.0099999988
  2.8 0.5 0.0099999988
  3.0999999 0.5 0.0099999988
  3.3 0.5 0.0099999988
  3.55 0.5 0.0099999988
  3.8 0.5 0.0099999988
  4.3000002 0.5 0.0099999988
  4.5 0.5 0.0099999988
  4.6999998 0.5 0.0099999988
  5.0999999 0.5 0.0099999988
  5.5 0.5 0.0099999988
  5.6999998 0.5 0.0099999988
  5.9000001 0.5 0.0099999988
  6.3000002 0.5 0.0099999988
  6.6999998 0.5 0.0099999988
  6.9000001 0.5 0.0099999988
  6.9499998 0.5 0.0099999988
  6.9899998 0.5 0.0099999988
  7 0.5 0.0099999988
  0.0099999988 0.89999998 0.0099999988
  0.050000001 0.89999998 0.0099999988
  0.1 0.89999998 0.0099999988
  0.30000001 0.89999998 0.0099999988
  0.55000001 0.89999998 0.0099999988
  0.80000001 0.89999998 0.0099999988
  1 0.89999998 0.0099999988
  1.3 0.89999998 0.0099999988
  1.8 0.89999998 0.0099999988
  2.3 0.89999998 0.0099999988
  2.8 0.89999998 0.0099999988
  3.0999999 0.89999998 0.0099999988
  3.3 0.89999998 0.0099999988
  3.55 0.89999998 0.0099999988
  3.8 0.89999998 0.0099999988
  4.3000002 0.89999998 0.0099999988
  4.5 0.89999998 0.0099999988
  4.6999998 0.89999998 0.0099999988
  5.0999999 0.89999998 0.0099999988
  5.5 0.89999998 0.0099999988
  5.6999998 0.89999998 0.0099999988
  5.9000001 0.89999998 0.0099999988
  6.3000002 0.89999998 0.0099999988
  6.6999998 0.89999998 0.0099999988
  6.9000001 0.89999998 0.0099999988
  6.9499998 0.89999998 0.0099999988
  6.9899998 0.89999998 0.0099999988
  7 0.89999998 0.0099999988
  0.0099999988 1.3 0.0099999988
  0.050000001 1.3 0.0099999988
  0.1 1.3 0.0099999988
  0.30000001 1.3 0.0099999988
  0.55000001 1.3 0.0099999988
  0.80000001 1.3 0.0099999988
  1 1.3 0.0099999988
  1.3 1.3 0.0099999988
  1.8 1.3 0.0099999988
  2.3 1.3 0.0099999988
  2.8 1.3 0.0099999988
  3.0999999 1.3 0.0099999988
  3.3 1.3 0.0099999988
  3.55 1.3 0.0099999988
  3.8 1.3 0.0099999988
  4.3000002 1.3 0.0099999988
  4.5 1.3 0.0099999988
  4.6999998 1.3 0.0099999988
  5.0999999 1.3 0.0099999988
  5.5 1.3 0.0099999988
  5.6999998 1.3 0.0099999988
  5.9000001 1.3 0.0099999988
  6.3000002 1.3 0.0099999988
  6.6999998 1.3 0.0099999988
  6.9000001 1.3 0.0099999988
  6.9499998 1.3 0.0099999988
  6.9899998 1.3 0.0099999988
  7 1.3 0.0099999988
  0.0099999988 1.7 0.0099999988
  0.050000001 1.7 0.0099999988
  0.1 1.7 0.0099999988
  0.30000001 1.7 0.0099999988
  0.55000001 1.7 0.0099999988
  0.80000001 1.7 0.0099999988
  1 1.7 0.0099999988
  1.3 1.7 0.0099999988
  1.8 1.7 0.0099999988
  2.3 1.7 0.0099999988
  2.8 1.7 0.0099999988
  3.0999999 1.7 0.0099999988
  3.3 1.7 0.0099999988
  3.55 1.7 0.0099999988
  3.8 1.7 0.0099999988
  4.3000002 1.7 0.0099999988
  4.5 1.7 0.0099999988
  4.6999998 1.7 0.0099999988
  5.0999999 1.7 0.0099999988
  5.5 1.7 0.0099999988
  5.6999998 1.7 0.0099999988
  5.9000001 1.7 0.0099999988
  6.3000002 1.7 0.0099999988
  6.6999998 1.7 0.0099999988
  6.9000001 1.7 0.0099999988
  6.9499998 1.7 0.0099999988
  6.9899998 1.7 0.0099999988
  7 1.7 0.0099999988
  0.0099999988 2.0999999 0.0099999988
  0.050000001 2.0999999 0.0099999988
  0.1 2.0999999 0.0099999988
  0.30000001 2.0999999 0.0099999988
  0.55000001 2.0999999 0.0099999988
  0.80000001 2.0999999 0.0099999988
  1 2.0999999 0.0099999988
  1.3 2.0999999 0.0099999988
  1.8 2.0999999 0.0099999988
  2.3 2.0999999 0.0099999988
  2.8 2.0999999 0.0099999988
  3.0999999 2.0999999 0.0099999988
  3.3 2.0999999 0.0099999988
  3.55 2.0999999 0.0099999988
  3.8 2.0999999 0.0099999988
  4.3000002 2.0999999 0.0099999988
  4.5 2.0999999 0.0099999988
  4.6999998 2.0999999 0.0099999988
  5.0999999 2.0999999 0.0099999988
  5.5 2.0999999 0.0099999988
  5.6999998 2.0999999 0.0099999988
  5.9000001 2.0999999 0.0099999988
  6.3000002 2.0999999 0.0099999988
  6.6999998 2.0999999 0.0099999988
  6.9000001 2.0999999 0.0099999988
  6.9499998 2.0999999 0.0099999988
  6.9899998 2.0999999 0.0099999988
  7 2.0999999 0.0099999988
  0.0099999988 2.5 0.0099999988
  0.050000001 2.5 0.0099999988
  0.1 2.5 0.0099999988
  0.30000001 2.5 0.0099999988
  0.55000001 2.5 0.0099999988
  0.80000001 2.5 0.0099999988
  1 2.5 0.0099999988
  1.3 2.5 0.0099999988
  1.8 2.5 0.0099999988
  2.3 2.5 0.0099999988
  2.8 2.5 0.0099999988
  3.0999999 2.5 0.0099999988
  3.3 2.5 0.0099999988
  3.55 2.5 0.0099999988
  3.8 2.5 0.0099999988
  4.3000002 2.5 0.0099999988
  4.5 2.5 0.0099999988
  4.6999998 2.5 0.0099999988
  5.0999999 2.5 0.0099999988
  5.5 2.5 0.0099999988
  5.6999998 2.5 0.0099999988
  5.9000001 2.5 0.0099999988
  6.3000002 2.5 0.0099999988
  6.6999998 2.5 0.0099999988
  6.9000001 2.5 0.0099999988
  6.9499998 2.5 0.0099999988
  6.9899998 2.5 0.0099999988
  7 2.5 0.0099999988
  0.0099999988 2.7 0.0099999988
  0.050000001 2.7 0.0099999988
  0.1 2.7 0.0099999988
  0.30000001 2.7 0.0099999988
  0.55000001 2.7 0.0099999988
  0.80000001 2.7 0.0099999988
  1 2.7 0.0099999988
  1.3 2.7 0.0099999988
  1.8 2.7 0.0099999988
  2.3 2.7 0.0099999988
  2.8 2.7 0.0099999988
  3.0999999 2.7 0.0099999988
  3.3 2.7 0.0099999988
  3.55 2.7 0.0099999988
  3.8 2.7 0.0099999988
  4.3000002 2.7 0.0099999988
  4.5 2.7 0.0099999988
  4.6999998 2.7 0.0099999988
  5.0999999 2.7 0.0099999988
  5.5 2.7 0.0099999988
  5.6999998 2.7 0.0099999988
  5.9000001 2.7 0.0099999988
  6.3000002 2.7 0.0099999988
  6.6999998 2.7 0.0099999988
  6.9000001 2.7 0.0099999988
  6.9499998 2.7 0.0099999988
  6.9899998 2.7 0.0099999988
  7 2.7 0.0099999988
  0.0099999988 2.9000001 0.0099999988
  0.050000001 2.9000001 0.0099999988
  0.1 2.9000001 0.0099999988
  0.30000001 2.9000001 0.0099999988
  0.55000001 2.9000001 0.0099999988
  0.80000001 2.9000001 0.0099999988
  1 2.9000001 0.0099999988
  1.3 2.9000001 0.0099999988
  1.8 2.9000001 0.0099999988
  2.3 2.9000001 0.0099999988
  2.8 2.9000001 0.0099999988
  3.0999999 2.9000001 0.0099999988
  3.3 2.9000001 0.0099999988
  3.55 2.9000001 0.0099999988
  3.8 2.9000001 0.0099999988
  4.3000002 2.9000001 0.0099999988
  4.5 2.9000001 0.0099999988
  4.6999998 2.9000001 0.0099999988
  5.0999999 2.9000001 0.0099999988
  5.5 2.9000001 0.0099999988
  5.6999998 2.9000001 0.0099999988
  5.9000001 2.9000001 0.0099999988
  6.3000002 2.9000001 0.0099999988
  6.6999998 2.9000001 0.0099999988
[...]
POINT_DATA 11424
VECTORS velocity float
  -0.0062880628 -0.006037035 0.0123251
  0.020995639 -0.01016393 0.0033478111
  0.0066849641 -0.001696447 0.004561712
  0.00028177281 0.002587439 -0.002266933
  0.0002101235 0.00042608101 -0.00042305861
  0.0001383388 3.522437e-05 -3.2216791e-05
  -0.00033443881 4.3479831e-05 -1.966638e-05
  -0.0018142631 0.0001151157 -6.5694658e-05
  -0.001476372 0.00030170291 -0.00030843029
  -0.0007808042 0.0001954796 -0.0002093713
  -0.00035681369 1.654617e-05 -2.500861e-05
  -0.0001387886 -1.781273e-05 1.058295e-05
  2.980785e-05 -1.136625e-07 -8.2172237e-06
  3.4511759e-05 5.2486092e-05 -5.2579759e-05
  0.00016681651 0.000108802 -0.000114002
  -7.3583098e-05 0.0002229138 -0.00021807219
  -5.2234391e-05 0.00033835019 -0.0003393126
  0 0.00038431329 -0.0003867012
  0 0 0
  0 0 0
  0.0001038988 0.0090066195 -0.0090118162
  -0.0003907776 0.0092244996 -0.0091995709
  -0.0004866611 0.0091030858 -0.0091006327
  -0.00063396938 0.0083665578 -0.0083628409
  -0.0019868391 0.0075151161 -0.0074473829
  -0.003267298 0.0061889682 -0.0059320242
  8.1867511e-05 0.0034445459 -0.004278949
  0 -0.0001534911 0.0002546511
  -0.01000072 0.0194792 0.003626484
  0.02779714 0.02458838 -0.018132521
  0.01309563 0.01400596 -0.00098083343
  0.00068338058 -0.003229134 0.002077312
  -0.00061511272 -0.00079134648 0.0003585919
  -0.00084161508 7.597261e-05 9.7475095e-07
  -0.001872197 0.000359411 -2.55259e-05
  -0.0041409782 0.00028491949 3.4789398e-05
  -0.0030136949 0.0001594549 1.427983e-05
  -0.001590603 3.3159758e-05 1.322981e-05
  -0.00068292761 -0.0002115586 4.002553e-05
  -0.000221835 -0.00031220581 5.9512069e-05
  0.00013177239 -0.000357949 7.321834e-05
  0.0001070336 -0.00038545459 0.0001120181
  0.00037092349 -0.00035212119 0.0001063553
  -0.0003415572 -0.00013241261 0.0001049719
  -0.00027087901 0.00027141609 1.559878e-05
  0 0.0002181462 3.0754822e-05
  0 0 0
  0 0 0
  0.0001575311 0.0090222806 -9.4240459e-06
  -0.0006173132 0.0086974278 0.0001728005
  -0.0008160646 0.01033248 -0.00030051591
  -0.00097940071 0.01061785 -0.00055712508
  -0.003396421 0.01057635 -0.00064279197
  -0.0061973841 0.008577791 -3.4305711e-05
  -0.0035181979 0.0070618801 -0.001569667
  0 0.0039582648 -0.0045324829
  -0.0021420871 0.0051303771 0.0050149849
  0.015717739 0.01027882 -0.001598516
  0.0044411952 0.0049612401 0.0040686
  -0.0002599915 -0.0044454038 0.00048098859
  -0.0009116322 -0.0012042311 0.0001111171
  -0.00087752863 -0.0001105409 3.821541e-05
  -0.001534652 0.000378036 3.1204079e-05
  -0.0034951081 5.2738509e-05 0.0001135387
  -0.002435772 -0.0001135024 3.4792702e-05
  -0.001266105 -4.7440521e-05 -6.0463208e-06
  -0.00043853209 -0.0002649012 -4.6097521e-06
  -1.523223e-05 -0.00040433751 5.724221e-06
  0.00032289859 -0.00049020012 1.110327e-05
  0.00034147839 -0.00056309038 3.6459242e-05
  0.00071440102 -0.00062139297 4.0765e-05
  -0.0001121575 -0.00053502031 9.9131161e-05
  -7.0198577e-05 -0.00035997701 0.00012679381
  0 -0.0003556365 0.0001142448
  0 0 0
  0 0 0
  8.5166132e-05 0.0029987141 0.0012030801
  -0.00047326079 0.0026937909 0.001231146
  -0.00082436739 0.0039794799 0.001281437
  -0.001444164 0.0044664699 0.001247554
  -0.0046474528 0.0060241031 0.001072417
  -0.007772564 0.0062692249 0.0010892591
  -0.0060345749 0.0053447331 -8.7249697e-05
  0 0.003310658 -0.0058927941
  0.0021004621 -0.0024404749 -0.0015951541
  0.0034763601 -0.0063202409 0.00076537381
  -0.0001998348 -0.0047991178 0.001388757
  0.00052303722 -0.001327367 -0.0002433247
  -0.00093614869 0.00045305819 -5.1572009e-05
  -0.001045784 0.0012701839 -8.7170971e-05
  -0.001058 0.00131771 -6.1548519e-05
  -0.002310364 -0.00051677972 8.0084872e-05
  -0.001597097 -0.002033913 0.0001140244
  -0.0008772345 -0.0021318151 0.0001247897
  -0.0002271135 -0.001953003 9.9773562e-05
  0.0001074508 -0.001759872 7.9492987e-05
  0.0003927772 -0.001589787 5.9391979e-05
  0.00046257069 -0.001359843 5.069156e-05
  0.00089992589 -0.0013254 2.982942e-05
  0.0002107169 -0.001291193 6.4581349e-05
  0.000439305 -0.001368779 5.6361379e-05
  0 -0.001153292 7.583871e-05
  0 0 0
  0 0 0
  -0.0001350302 -0.00090489228 0.000267458
  -0.00025855019 -0.00082718942 0.00024154691
  -0.00096360513 -0.0005956245 0.0003230607
  -0.0019721291 -0.0001739195 0.00033492959
  -0.004702589 0.001616645 0.0004307614
  -0.0080758501 0.0022699609 0.00094250409
  -0.007661486 0.002005328 0.0001216339
  0 0.001257523 -0.0075123878
  -0.00041670279 0.00137659 0.00026420181
  0.0049720132 0.0051976908 -0.001805502
  0.0045534628 0.0038147429 -0.0002583047
  0.001718241 0.0030599509 -3.3315009e-05
  -0.0001151899 0.002691034 -1.5891161e-05
  -0.0003585901 0.0023200901 -3.2004711e-05
  -0.0003656742 0.001149584 7.3517322e-06
  -0.00050810492 -0.002101684 6.8333356e-05
  -0.00015044439 -0.003695529 5.9429389e-05
  -2.2988839e-05 -0.0039022111 6.8369278e-05
  0.00027959319 -0.003429312 5.3106662e-05
  0.00043206301 -0.0029359821 4.2097119e-05
  0.00064036419 -0.002489168 2.5763609e-05
  0.00063177443 -0.001886709 2.1621599e-05
  0.0010145101 -0.001552447 -6.0179832e-06
  0.00038066669 -0.001310148 1.360747e-05
  0.00076704792 -0.001772603 -2.890773e-06
  0 -0.001656627 5.8887919e-05
  0 0 0
  0 0 0
  -0.00025186839 -0.00071159418 5.0413801e-06
  -0.00065915962 -0.00052465347 8.6579394e-06
  -0.0014970039 -0.00041540049 1.39531e-05
  -0.001590047 -0.00025711951 5.8269638e-06
  -0.00208836 -0.00016432159 9.6383948e-05
  -0.006194022 -0.0002778139 0.00092412293
  -0.0078436593 -7.9974052e-05 0.00049825001
  0 9.2959208e-06 -0.0077816001
  0.00031362139 0.002651212 -0.00034541739
  0.0042884108 0.007441734 -0.00104781
  0.0041597299 0.0064321072 -3.7550999e-05
  0.003027356 0.0058043478 -1.170895e-05
  0.001736036 0.0038532349 2.2773411e-05
  0.0025634789 -1.66181e-06 2.5097021e-05
  0.001826423 -0.0030020629 0.0001408161
  0.0020412961 -0.0053884801 7.511687e-05
  0.001833091 -0.0060977968 6.427928e-05
  0.00134152 -0.0059921108 6.2129693e-05
  0.001203937 -0.0053224321 5.0133091e-05
  0.001114781 -0.0045854421 4.4287091e-05
  0.001224878 -0.0039759059 3.1807751e-05
  0.001019077 -0.003062878 3.777548e-05
  0.001199811 -0.0023121969 1.190358e-05
  0.0001827208 -0.001474331 2.4536041e-05
  0.00085293601 -0.0021927189 -2.283402e-05
  0 -0.002117994 5.4468252e-05
  0 0 0
  0 0 0
  -0.0004473296 0.0004208358 -5.8728078e-06
  -0.001012045 0.00044972921 4.1780768e-06
  -0.001676464 0.0004535128 -4.9788118e-06
  -0.001120072 0.00031211751 -2.803909e-05
  -0.00089900132 0.0002246322 -2.061442e-05
  -0.0045857518 0.0007288981 0.0007132215
  -0.0070188348 0.00078897481 0.00058896787
  0 0.00069090538 -0.0070235771
  0.001356376 -0.00078648841 -0.001270386
  0.0026335111 0.002287921 -0.0001891078
  0.001831443 0.0030412581 0.00024663811
  0.0025855971 -0.001914732 0.0001554601
  0.0051718559 -0.0053598839 0.00012699611
  0.006332879 -0.007132329 0.00013192779
  0.0056124441 -0.008267737 0.0001677808
  0.005288688 -0.0085821878 9.071055e-05
  0.0039452198 -0.0078237727 7.0061498e-05
  0.002946133 -0.0074123442 5.5527711e-05
  0.0026186621 -0.0065252949 3.6665999e-05
  0.0023018729 -0.0054291058 3.17216e-05
  0.0023657051 -0.0045603211 1.155445e-05
  0.001959909 -0.0034463019 2.594812e-05
  0.001929265 -0.0025102929 6.3085372e-06
  -0.00027954701 -0.001268371 3.9107159e-05
  0.00070572912 -0.00206072 -5.240184e-05
  0 -0.002159918 3.6607729e-05
  0 0 0
  0 0 0
  -0.00046069591 0.001953563 -1.522385e-05
  -0.00098819961 0.001729158 -5.308058e-06
  -0.001533171 0.001420764 -1.042792e-05
  -0.00098241505 0.0003433408 -1.445228e-05
  -0.001026868 -0.0001039939 1.060126e-05
  -0.0039632511 0.001085888 0.00057944818
  -0.0062388368 0.0009808453 0.0005666698
  0 0.00077064801 -0.0062277522
  -0.001675467 -0.032416109 0.00246624
  0.0077990829 -0.03886757 -0.001339443
  0.0087717241 -0.031292401 0.00066413952
  0.01329286 -0.036331762 0.00063442899
  0.01249266 -0.02802111 0.00059858541
  0.01039434 -0.018325539 0.00036380941
  0.0083248578 -0.01344662 0.00023300289
  0.0065978668 -0.01025023 9.9310637e-05
  0.0042752181 -0.0088947909 7.3258743e-05
  0.0036768769 -0.0084913559 3.897569e-05
  0.0038669959 -0.0071923309 1.291526e-05
  0.003615852 -0.0055087749 1.043134e-05
  0.0035780959 -0.0042537958 -5.6381341e-06
  0.002981229 -0.002730099 6.104875e-06
  0.0028807849 -0.0015941591 -1.875015e-05
  -0.00087158091 -5.1995408e-05 4.4720131e-05
  0.00028744791 -0.001002875 -8.4231528e-05
  0 -0.0019964641 1.056912e-05
  0 0 0
  0 0 0
  -0.00043376681 0.0038137301 -2.4753421e-05
  -0.001010439 0.003135741 -6.0062148e-06
  -0.001938252 0.002183266 4.2719789e-06
  -0.0019115279 -0.00045897771 1.949487e-05
  -0.001474606 -0.001664202 1.7337939e-05
  -0.0041978541 -0.00026376211 0.00057962543
  -0.0060537858 2.289343e-05 0.00049082161
  0 0.0001882441 -0.0060246331
  -0.0087868804 -0.1090477 0.01070268
  0.018478939 -0.1095642 -0.0050501558
  0.039260719 -0.094235279 -0.002583896
  0.046635281 -0.098820932 0.001193394
  0.03465214 -0.070511043 0.001541538
  0.01997854 -0.04031815 0.001136744
  0.01078032 -0.021709019 0.00066646188
  0.0053663738 -0.01106101 0.0002007406
  0.0035822091 -0.0090136193 3.866903e-05
  0.0046065049 -0.0088709658 -1.097147e-05
  0.00555425 -0.0071423771 -2.016775e-05
  0.005437593 -0.0046531642 -1.7439101e-05
  0.0051719788 -0.00272438 -2.4821989e-05
  0.0042720949 -0.00062898151 -1.6394801e-05
  0.0039771479 0.00090550788 -5.0554248e-05
  -0.001433786 0.00257872 4.2535299e-05
  -0.00075947872 0.0021793579 -0.000113102
  0 0.001062737 -0.000114161
  0 0 0
  0 0 0
  -0.0001851977 0.0048558088 -1.6724811e-05
  -0.00077336188 0.003852726 1.182957e-05
  -0.002284358 0.0021021341 3.9952702e-05
  -0.002920687 -0.001938132 5.3000618e-05
  -0.00264172 -0.0040356158 4.5533179e-05
  -0.0049963449 -0.003293965 0.00054810202
  -0.0060103228 -0.002493032 0.000319871
  0 -0.001419485 -0.0059524588
  -0.022515129 -0.2257767 0.02543333
  0.031546231 -0.2071567 -0.01107725
  0.1014948 -0.19000331 -0.01159708
  0.1114676 -0.17145421 0.001317008
  0.077221394 -0.1123765 0.002416403
  0.04000612 -0.061087899 0.002007792
  0.01427558 -0.028502651 0.0014562859
  0.0028688139 -0.0095020216 0.0003412058
  0.0039730808 -0.0085608326 -3.341382e-05
  0.0067040632 -0.009088642 -4.9170521e-05
  0.0079452293 -0.0066985129 -3.5897268e-05
  0.0077596232 -0.0024914851 -4.781118e-05
  0.0070371381 0.0003943945 -4.1751769e-05
  0.005502258 0.0029230691 -2.730131e-05
  0.0044368492 0.0050596069 -6.1123901e-05
  -0.002007256 0.007118267 1.546983e-05
  -0.002412973 0.009299309 -0.00015756099
  0 0.009784203 -0.00033842149
  0 0 0
  0 0 0
  0.00042895001 0.0040764371 -1.891823e-06
  -0.00059256708 0.003834103 5.186741e-05
  -0.001145725 0.0004234573 5.5940731e-05
  -0.003117224 -0.0031755969 8.0336678e-05
  -0.0040545492 -0.0063828561 0.0001057418
  -0.0057929759 -0.007361969 0.00045076231
  -0.0055981739 -0.0065887221 5.7094501e-05
  0 -0.0043566008 -0.0055074082
  -0.067615002 0.2401792 0.044317149
  0.054484218 0.21578629 -0.051669959
  0.22028559 0.199205 -0.052619219
  0.18960591 0.174698 -0.01577354
  0.1112351 0.1092379 -0.0079459539
  0.051134679 0.05629719 -0.003465357
  0.01226735 0.02320059 -0.00064197741
  0.002332309 0.00085647282 -0.0001868893
  0.0067338678 -0.0076034302 -0.0001359592
  0.0097075161 -0.0091850637 -5.4669508e-05
  0.01022029 -0.006198287 -3.5250869e-05
  0.008885432 -0.00083020033 -3.8528899e-05
  0.007188594 0.002335246 -1.213774e-05
  0.0052418322 0.0044100229 3.609226e-06
  0.0042055249 0.004718448 5.862051e-05
  -0.00112884 0.0078892484 6.8260153e-05
  -0.0027880759 0.01290096 -9.6923482e-05
  0 0.017212929 -0.00051054748
  0 0 0
  0 0 0
  0.001796442 0.0016810159 3.0122639e-05
  0.0028200401 -0.001865679 0.0002341792
  0.001307289 -0.003363685 0.0002273915
  -0.0019610389 -0.0049131871 0.0001687714
  -0.0058158501 -0.0078693032 0.00026731699
  -0.006118549 -0.0092027942 0.0001537605
  -0.0045575462 -0.0099147595 -0.0002212659
  0 -0.0075565339 -0.0043844171
  -0.03022995 0.1461121 0.034933452
  0.042628031 0.1424178 -0.01454572
  0.13081039 0.1272928 -0.01404065
  0.1434523 0.1285442 0.001675566
  0.1011176 0.085088968 0.0029006761
  0.057062481 0.041279521 0.0025128541
  0.02459369 0.013241 0.002121103
  0.0073986431 -0.0055874288 0.00089510641
  0.0090428796 -0.0098523116 7.9407931e-05
  0.01138538 -0.0098286346 -1.476093e-05
  0.01037494 -0.0060450169 1.250182e-05
  0.0078526549 -0.00026928171 5.6006389e-05
  0.005228566 0.003031652 9.6361749e-05
  0.0022817899 0.0049855108 8.9111207e-05
  0.0040503852 0.001686375 8.0917482e-05
  0.001189573 0.0055074729 0.0001764153
  -0.00077120168 0.01390867 4.7842321e-05
  3.269225e-16 0.02561258 -0.00045827261
  0 7.9424911e-14 0
  1.544284e-14 -7.0783731e-18 0
  0.0047341771 -0.0057049789 0.000132795
  0.007152936 -0.0054781861 6.0049799e-05
  0.0038523411 -0.004763613 0.00015273639
  -0.001312142 -0.004071435 8.7227912e-05
  -0.0054701678 -0.006226907 0.0001260424
  -0.0050908108 -0.0084003499 -0.0001149598
  -0.002690804 -0.0092433468 -0.00063125131
  0 -0.0072669452 -0.0026939739
  -0.01343774 0.063854158 0.01549419
  0.021814991 0.072643772 -0.0070712841
  0.053215101 0.061440632 -0.0046361722
  0.06289383 0.059144251 0.001250761
  0.04663457 0.03211575 0.0019744979
  0.027692281 0.0028352409 0.001718585
  0.01516968 -0.00977368 0.001201205
  0.01292966 -0.0121464 0.00023843419
  0.01314115 -0.0093857842 -1.599928e-05
  0.01328883 -0.0088103246 -2.8485751e-05
  0.0098671047 -0.004476774 2.9174291e-05
  0.0050419341 0.001748895 0.0001103196
  -0.00044481651 0.008661407 0.0001334906
  0.00026370111 0.00078097312 7.6703138e-05
  0.0041694529 -0.003309472 -3.1370691e-05
  0.0096149668 0.00085515081 7.413154e-06
  0.01727559 0.0030195401 -0.0001107554
  0.024982721 0.0046770251 0.00013814559
  0.01451666 -0.0046115671 0.0003769756
  0.0123848 -0.0037137649 0.0001461806
  0.01303485 -0.003046701 -9.8787612e-05
  0.01239848 -0.0027100011 -3.7195801e-05
  0.0078024478 -0.00068997039 1.31469e-05
  -0.00036327509 0.0024485581 4.1216379e-05
  -0.006020186 0.001392452 9.2480957e-05
  -0.0050175642 0.00091993948 -0.0004327505
  -0.0024225591 0.00062772882 -0.00089358923
  0 0.00078630459 -0.002613981
  -0.0078744767 -0.02039958 0.01208704
  0.0134503 -0.02856186 -0.0002741818
  0.018233661 -0.01268515 0.0027461471
  0.0213432 -0.0040540039 0.0030039421
  0.01617964 -0.001561531 0.0018900509
  0.026047301 0.001384516 -0.00032253159
  0.03046634 0.001529792 -0.00078657462
  0.02392018 -0.001056783 -0.0003366142
  0.01533228 -0.0040798462 -9.3755843e-05
  0.01225089 -0.006436727 -5.7220881e-05
  0.004786402 -0.003184638 8.4548803e-05
  0.00040208959 -0.00030050281 0.00024847151
  -0.0070338482 0.01078798 0.00026528089
  0.0028915771 -0.001077579 -0.00030422659
  0.0080384389 -0.0046241549 -0.0001402303
  0.01262569 0.0005716458 -7.7572673e-05
  0.017844319 0.0040929778 -0.00031456689
  0.025173619 0.0066408981 -0.00046454949
  0.018957181 0.001130045 -0.0001315345
  0.01490442 -0.001482602 -1.008353e-05
  0.01533248 -0.0001606453 -0.00016550079
  0.018779799 -0.00086182711 -0.0002645826
  0.01558319 0.0084482953 -0.00037690409
  0.002770189 0.01414614 -0.00026446459
  -0.0061239759 0.0110294 -3.7001999e-05
  -0.0065986528 0.01392323 -0.0005544544
  -0.0047061802 0.01567336 -0.001223392
  0 0.01304708 -0.005308771
  -0.0087891193 -0.089564592 0.01224712
  0.01175757 -0.1012313 -0.0015062561
  0.016201889 -0.071781851 0.0020627009
  0.02708148 -0.069986217 0.0027520331
  0.02698601 -0.049619369 0.002406219
  0.025485929 -0.02887412 0.0015724309
  0.023317751 -0.01875392 0.001122001
  0.0186243 -0.01059874 0.00063305913
  0.01213711 -0.00615279 0.0002330367
  0.01066522 -0.0060981852 1.222375e-05
  0.002257426 -0.0039955019 0.0002084641
  -0.0003412615 -0.0082555301 0.00048414621
  -0.0059644841 0.0102523 0.00030767851
  0.0026587821 -0.0063473582 -8.1647697e-05
  0.0088764383 -0.0079766838 -8.122727e-05
  0.0132332 -0.0032509919 0.0001039576
  0.01561456 -0.001568204 0.0001640096
  0.01647732 -0.00065819838 0.00032192559
  0.01406612 -0.0037502309 0.00030447679
  0.01374267 -0.0046619889 0.0001672605
  0.01399466 0.0030502731 -0.0001729295
  0.02698669 -0.0050413702 -0.00044045979
  0.02466399 0.029523831 -0.00099562423
  0.0051133302 0.045927972 -0.001100226
  -0.004131868 0.031644031 -0.0005683109
  -0.001702217 0.0080024013 -0.0001891143
  -0.0002163891 0.0047606099 0.00017626191
  0 0.00065865141 0.00041350329
  -0.01355545 -0.15727779 0.01694092
  0.01914474 -0.1594601 -0.0052671032
  0.0456082 -0.1116887 -0.003300864
  0.064118773 -0.1222553 0.001687285
  0.05637037 -0.09235204 0.002446057
  0.0406706 -0.058030061 0.0020852711
  0.029933561 -0.042170331 0.001707059
  0.01919112 -0.02558996 0.001107129
  0.01082402 -0.0093108006 0.0003248596
  0.0096792998 -0.0050988542 -2.738639e-05
  -0.0023101971 -0.0074118432 0.0004103478
  -0.0048458292 -0.02435511 0.00088925322
  -0.001344683 -0.01016766 0.00084565207
  0.004347438 -0.01888719 0.00039907981
  0.0099910051 -0.01353897 5.2202769e-05
  0.01281927 -0.0059526549 7.8458397e-05
  0.01377233 -0.0052925269 0.00013855771
  0.01174211 -0.005664974 0.00035193309
  0.01499518 -0.0080746347 0.00013506949
  0.02414065 0.004504934 -0.00068679289
  0.01277292 0.022146611 -0.00038625029
  0.01760293 0.03217461 -0.0021021699
  -0.056917921 0.03478194 0.001600184
  -0.17414729 0.036201078 0.003417168
  -0.28704879 0.02173624 0.0061405809
  -0.32542399 0.0088409251 0.0076335939
  -0.34350291 0.0040838579 0.0045542261
  0 0.00084152888 0.0037128541
  -0.022198411 -0.2419994 0.026434289
  0.023543069 -0.2343753 -0.007694107
  0.084893018 -0.16610201 -0.009553615
  0.1115448 -0.1731278 0.001210292
  0.094878159 -0.1227105 0.0021840429
  0.058659811 -0.07845404 0.002469402
  0.040645178 -0.070885539 0.002335873
  0.02342236 -0.049548049 0.001771478
  0.01084018 -0.01586893 0.0005791533
  0.0080822716 -0.0039189989 -4.165016e-06
  -0.0098877903 -0.01647144 0.00081211008
  -0.01203408 -0.052856199 0.0014963479
  0.0068041221 -0.051596019 0.001129215
  0.0097495653 -0.041335359 0.001004357
  0.01120434 -0.022950711 0.0004122149
  0.01115488 -0.007879775 9.7273631e-05
  0.01076646 -0.0068372642 9.6636832e-05
  0.0085755149 -0.0070591778 0.0001793233
  0.01801867 -0.007138947 -0.0002827025
  0.01039713 0.0032902181 0.00025144839
  -0.015558 -0.0026427701 0.0025373909
  -0.030660059 0.0094716419 0.001890371
  -0.1119987 0.0042346041 0.003560896
  -0.2156236 0.0041235602 0.00419458
  -0.29972661 0.002591982 0.0051624668
  -0.32993719 0.00085092918 0.0064420458
  -0.3437832 0.000413431 0.0036456489
  0 8.3605562e-05 0.0034795939
  -0.037181661 -0.314078 0.040785361
  0.019215209 -0.2912612 -0.01126009
  0.15229499 -0.21839 -0.024006059
  0.17273679 -0.1998903 0.0003152405
  0.1346723 -0.12550931 0.001661956
  0.064297237 -0.083369672 0.0030602419
  0.05243028 -0.1135701 0.0027269521
  0.033243969 -0.082290828 0.002276168
  0.01310961 -0.02763699 0.00099069171
  0.003922245 -0.003115047 0.0001432111
  -0.02179876 -0.03333877 0.001357511
  -0.02293737 -0.090751499 0.001932467
  0.023827299 -0.1007674 0.0001200405
  0.019335359 -0.074511759 0.001838258
  0.01271792 -0.038659539 0.00104995
  0.0087929145 -0.01158037 0.00026344939
  0.0077929311 -0.0093046874 0.00017333979
  0.0064371941 -0.009360929 0.0001829298
  0.021246601 -0.006743052 -0.0003898787
  0.0094323168 -0.0074842358 0.00083424448
  -0.0097710667 -0.001300049 0.00089319632
  -0.034708779 -0.01899544 0.0026703631
  -0.11097 -0.031299088 0.0036832821
  -0.21459121 -0.03211524 0.0044025499
  -0.29974559 -0.017503049 0.0052625719
  -0.33001229 -0.0067177769 0.0064321952
  -0.34378991 -0.002965613 0.0036139421
  0 -0.00060741382 0.0034693519
  -0.076269202 0.31543699 0.04479317
  -0.026148399 0.29210299 -0.041700762
  0.26521581 0.21805739 -0.080097027
  0.2282915 0.20035879 -0.01816681
  0.1554984 0.1169367 -0.009211109
  0.03272599 -0.066768467 0.0040802769
  0.070590578 -0.1748794 0.00117162