# vtk DataFile Version 3.0
Random data to test tensors
ASCII
DATASET UNSTRUCTURED_GRID
POINTS 8 float
0 0 0 
1 0 0 
0 1 0 
1 1 0 
0 0 1 
1 0 1 
0 1 1 
1 1 1 

CELLS 1 9
8 0 1 2 3 4 5 6 7

CELL_TYPES 1
11

POINT_DATA 8
SCALARS scalars float
LOOKUP_TABLE default
0 1 2 3 4 3 2 0

SCALARS other_scalars float
LOOKUP_TABLE default
0 6 2 3 4 7 5 1

TENSORS tensors1 float
1 0 0
0 1 0
0 0 1

-2 0 0
0 -2 0
0 0 3

1 0 0
0 1 0
0 0 .001

2 1 1
1 2 1
1 1 3

0.247186415568 0.490995206139 0.131324884836 
0.490995206139 -0.371055707211 0.719071682671
0.131324884836 0.719071682671 -0.156008182087

0.280587657181 0.467438945439 0.934953136331 
0.467438945439 0.0600321140579 -0.211376327727
0.934953136331  -0.211376327727 0.962975830149

0.0628609549443 -0.0117908465212 -0.667617347633 
-0.0117908465212  -0.390601011028 -0.95780533241
-0.667617347633 -0.95780533241 -0.193319773383

0 0 0
0 0 0
0 0 0
 
