<?xml version="1.0"?>
<VTKFile type="PolyData" version="0.1" byte_order="LittleEndian" header_type="UInt32" compressor="vtkZLibDataCompressor">
  <PolyData>
    <FieldData>
      <DataArray type="Float64" Name="Camera:ViewUp" NumberOfComponents="3" NumberOfTuples="1" format="ascii" RangeMin="1" RangeMax="1">
        0 1 0
        <InformationKey name="L2_NORM_RANGE" location="vtkDataArray" length="2">
          <Value index="0">
            1
          </Value>
          <Value index="1">
            1
          </Value>
        </InformationKey>
      </DataArray>
      <DataArray type="Float64" Name="Camera:Position" NumberOfComponents="3" NumberOfTuples="1" format="ascii" RangeMin="6.942067275006587" RangeMax="6.942067275006587">
        3.984514675338033 3.6676066831537444 4.343339967170336
        <InformationKey name="L2_NORM_RANGE" location="vtkDataArray" length="2">
          <Value index="0">
            6.942067275
          </Value>
          <Value index="1">
            6.942067275
          </Value>
        </InformationKey>
      </DataArray>
      <DataArray type="Float64" Name="Camera:FocalPoint" NumberOfComponents="3" NumberOfTuples="1" format="ascii" RangeMin="1.3460342333452535" RangeMax="1.3460342333452535">
        0.8486501984298229 0.8509808294475079 0.6061622109264135
        <InformationKey name="L2_NORM_RANGE" location="vtkDataArray" length="2">
          <Value index="0">
            1.3460342333
          </Value>
          <Value index="1">
            1.3460342333
          </Value>
        </InformationKey>
      </DataArray>
      <DataArray type="Float64" Name="Camera:ClippingRange" NumberOfComponents="2" NumberOfTuples="1" format="ascii" RangeMin="9.663674970105209" RangeMax="9.663674970105209">
        2.762618291391881 9.260375483958786
        <InformationKey name="L2_NORM_RANGE" location="vtkDataArray" length="2">
          <Value index="0">
            9.6636749701
          </Value>
          <Value index="1">
            9.6636749701
          </Value>
        </InformationKey>
      </DataArray>
      <DataArray type="Float64" Name="Camera:ViewAngle" NumberOfTuples="1" format="ascii" RangeMin="30" RangeMax="30">
        30
      </DataArray>
      <DataArray type="Float64" Name="Property:Ambient" NumberOfTuples="1" format="ascii" RangeMin="0" RangeMax="0">
        0
      </DataArray>
      <DataArray type="Float64" Name="Property:AmbientColor" NumberOfComponents="3" NumberOfTuples="1" format="ascii" RangeMin="1.7320508075688772" RangeMax="1.7320508075688772">
        1 1 1
        <InformationKey name="L2_NORM_RANGE" location="vtkDataArray" length="2">
          <Value index="0">
            1.7320508076
          </Value>
          <Value index="1">
            1.7320508076
          </Value>
        </InformationKey>
      </DataArray>
      <DataArray type="Float64" Name="Property:Diffuse" NumberOfTuples="1" format="ascii" RangeMin="0.5" RangeMax="0.5">
        0.5
      </DataArray>
      <DataArray type="Float64" Name="Property:DiffuseColor" NumberOfComponents="3" NumberOfTuples="1" format="ascii" RangeMin="0.897688089588988" RangeMax="0.897688089588988">
        0.8627450980392157 0.0784313725490196 0.23529411764705882
        <InformationKey name="L2_NORM_RANGE" location="vtkDataArray" length="2">
          <Value index="0">
            0.89768808959
          </Value>
          <Value index="1">
            0.89768808959
          </Value>
        </InformationKey>
      </DataArray>
      <DataArray type="Float64" Name="Property:EdgeColor" NumberOfComponents="3" NumberOfTuples="1" format="ascii" RangeMin="0.87393808798018" RangeMax="0.87393808798018">
        0.4392156862745098 0.5019607843137255 0.5647058823529412
        <InformationKey name="L2_NORM_RANGE" location="vtkDataArray" length="2">
          <Value index="0">
            0.87393808798
          </Value>
          <Value index="1">
            0.87393808798
          </Value>
        </InformationKey>
      </DataArray>
      <DataArray type="Int32" Name="Property:EdgeVisibility" NumberOfTuples="1" format="ascii" RangeMin="1" RangeMax="1">
        1
      </DataArray>
      <DataArray type="Float64" Name="Property:VertexColor" NumberOfComponents="3" NumberOfTuples="1" format="ascii" RangeMin="1.224744871391589" RangeMax="1.224744871391589">
        0.5 1 0.5
        <InformationKey name="L2_NORM_RANGE" location="vtkDataArray" length="2">
          <Value index="0">
            1.2247448714
          </Value>
          <Value index="1">
            1.2247448714
          </Value>
        </InformationKey>
      </DataArray>
      <DataArray type="Int32" Name="Property:VertexVisibility" NumberOfTuples="1" format="ascii" RangeMin="0" RangeMax="0">
        0
      </DataArray>
      <DataArray type="Int32" Name="Property:Interpolation" NumberOfTuples="1" format="ascii" RangeMin="1" RangeMax="1">
        1
      </DataArray>
      <DataArray type="Float64" Name="Property:Opacity" NumberOfTuples="1" format="ascii" RangeMin="1" RangeMax="1">
        1
      </DataArray>
      <DataArray type="Int32" Name="Property:Representation" NumberOfTuples="1" format="ascii" RangeMin="2" RangeMax="2">
        2
      </DataArray>
      <DataArray type="Float64" Name="Property:Specular" NumberOfTuples="1" format="ascii" RangeMin="0.5" RangeMax="0.5">
        0.5
      </DataArray>
      <DataArray type="Float64" Name="Property:SpecularColor" NumberOfComponents="3" NumberOfTuples="1" format="ascii" RangeMin="1.7320508075688772" RangeMax="1.7320508075688772">
        1 1 1
        <InformationKey name="L2_NORM_RANGE" location="vtkDataArray" length="2">
          <Value index="0">
            1.7320508076
          </Value>
          <Value index="1">
            1.7320508076
          </Value>
        </InformationKey>
      </DataArray>
      <DataArray type="Float64" Name="Property:SpecularPower" NumberOfTuples="1" format="ascii" RangeMin="0" RangeMax="0">
        0
      </DataArray>
      <DataArray type="Int32" Name="Property:BackfaceCulling" NumberOfTuples="1" format="ascii" RangeMin="0" RangeMax="0">
        0
      </DataArray>
      <DataArray type="Int32" Name="Property:FrontfaceCulling" NumberOfTuples="1" format="ascii" RangeMin="1" RangeMax="1">
        1
      </DataArray>
      <DataArray type="Float64" Name="Property:PointSize" NumberOfTuples="1" format="ascii" RangeMin="1" RangeMax="1">
        1
      </DataArray>
      <DataArray type="Float64" Name="Property:LineWidth" NumberOfTuples="1" format="ascii" RangeMin="1" RangeMax="1">
        1
      </DataArray>
      <DataArray type="Int32" Name="Property:LineStipplePattern" NumberOfTuples="1" format="ascii" RangeMin="65535" RangeMax="65535">
        65535
      </DataArray>
      <DataArray type="Int32" Name="Property:LineStippleRepeatFactor" NumberOfTuples="1" format="ascii" RangeMin="1" RangeMax="1">
        1
      </DataArray>
      <DataArray type="Int32" Name="Property:Lighting" NumberOfTuples="1" format="ascii" RangeMin="1" RangeMax="1">
        1
      </DataArray>
      <DataArray type="Int32" Name="Property:RenderPointsAsSpheres" NumberOfTuples="1" format="ascii" RangeMin="0" RangeMax="0">
        0
      </DataArray>
      <DataArray type="Int32" Name="Property:RenderLinesAsTubes" NumberOfTuples="1" format="ascii" RangeMin="0" RangeMax="0">
        0
      </DataArray>
      <DataArray type="Int32" Name="Property:Shading" NumberOfTuples="1" format="ascii" RangeMin="0" RangeMax="0">
        0
      </DataArray>
      <DataArray type="Float64" Name="BackfaceProperty:Ambient" NumberOfTuples="1" format="ascii" RangeMin="0" RangeMax="0">
        0
      </DataArray>
      <DataArray type="Float64" Name="BackfaceProperty:AmbientColor" NumberOfComponents="3" NumberOfTuples="1" format="ascii" RangeMin="1.0295368738166937" RangeMax="1.0295368738166937">
        0.2 0.6313725490196078 0.788235294117647
        <InformationKey name="L2_NORM_RANGE" location="vtkDataArray" length="2">
          <Value index="0">
            1.0295368738
          </Value>
          <Value index="1">
            1.0295368738
          </Value>
        </InformationKey>
      </DataArray>
      <DataArray type="Float64" Name="BackfaceProperty:Diffuse" NumberOfTuples="1" format="ascii" RangeMin="1" RangeMax="1">
        1
      </DataArray>
      <DataArray type="Float64" Name="BackfaceProperty:DiffuseColor" NumberOfComponents="3" NumberOfTuples="1" format="ascii" RangeMin="1.0295368738166937" RangeMax="1.0295368738166937">
        0.2 0.6313725490196078 0.788235294117647
        <InformationKey name="L2_NORM_RANGE" location="vtkDataArray" length="2">
          <Value index="0">
            1.0295368738
          </Value>
          <Value index="1">
            1.0295368738
          </Value>
        </InformationKey>
      </DataArray>
      <DataArray type="Float64" Name="BackfaceProperty:EdgeColor" NumberOfComponents="3" NumberOfTuples="1" format="ascii" RangeMin="0" RangeMax="0">
        0 0 0
        <InformationKey name="L2_NORM_RANGE" location="vtkDataArray" length="2">
          <Value index="0">
            0
          </Value>
          <Value index="1">
            0
          </Value>
        </InformationKey>
      </DataArray>
      <DataArray type="Int32" Name="BackfaceProperty:EdgeVisibility" NumberOfTuples="1" format="ascii" RangeMin="0" RangeMax="0">
        0
      </DataArray>
      <DataArray type="Float64" Name="BackfaceProperty:VertexColor" NumberOfComponents="3" NumberOfTuples="1" format="ascii" RangeMin="1.224744871391589" RangeMax="1.224744871391589">
        0.5 1 0.5
        <InformationKey name="L2_NORM_RANGE" location="vtkDataArray" length="2">
          <Value index="0">
            1.2247448714
          </Value>
          <Value index="1">
            1.2247448714
          </Value>
        </InformationKey>
      </DataArray>
[...]
      <PointData Normals="Normals">
        <DataArray type="Float32" Name="Normals" NumberOfComponents="3" format="ascii" RangeMin="0.9999999604990634" RangeMax="1.0000000408603298">
          0.25428712 0.94646657 -0.19884433 0.08403574 0.8039463 0.5887345
          0.24335186 0.9683289 0.05584779 0.8820759 0.40409386 -0.24217811
          -0.98479795 0.14273788 0.09898959 -0.052558552 0.9799785 -0.19204108
          -0.22141974 0.5661219 0.79402727 0.69450974 0.67263573 0.2553769
          -0.35674912 0.7069213 0.610731 -0.62568086 0.20930141 -0.75147617
          0.20981829 0.89380676 0.3963405 0.5406716 0.55990505 0.627838
          0.25278404 -0.9226126 -0.29135242 0.69132864 0.3320306 0.64173234
          0.8664842 0.44578317 -0.22468299 0.48013666 0.8302749 0.28304142
          -0.11737232 0.6259552 0.7709759 0.56582826 0.21980436 0.79468507
          0.9545603 0.10946525 0.27718583 0.7642061 -0.18675703 0.61734176
          -0.92450964 0.25580367 -0.2825711 0.5058288 0.8448177 0.17441395
          0.27754712 0.051286872 0.95934206 -0.9820453 0.14011817 0.12630872
          0.70703644 0.37344417 -0.60053223 0.7477236 0.22353308 0.62525386
          -0.29512453 0.94078714 0.16679645 0.31054795 -0.44815022 0.8382848
          0.47434175 -0.37894884 0.7946054 -0.19975847 0.9798306 -0.005337937
          -0.73948276 0.6094864 0.28581733 0.59107906 0.70864785 0.385284
          0.8747294 0.48199144 0.05032614 0.7971534 0.29112646 -0.5289535
          0.88207114 0.3913479 0.26229244 0.09680242 0.09230384 -0.9910143
          -0.2893866 0.71804035 0.6329877 -0.99235517 -0.02592436 0.12066124
          0.5660951 -0.27854687 0.77585304 -0.94178563 0.16878127 -0.29077944
          0.45551723 0.38698715 -0.80171376 0.34780216 0.4427544 0.8264395
          -0.3340151 0.7796951 0.5296315 0.6350892 -0.025337102 0.77202314
          -0.6331628 0.11876687 -0.76485246 -0.54205716 0.35685185 -0.7608093
          0.1798876 0.38832453 -0.9037945 -0.021179335 0.9948362 0.09925875
          0.06189526 0.85415274 0.51632553 -0.34758574 0.9176099 0.19281161
          -0.07098011 0.69291395 -0.717518 0.17210124 0.5255802 0.8331546
          0.010767237 0.29357657 0.9558749 -0.46856806 0.79663414 0.38186127
          -0.9700876 -0.19384804 -0.14612687 0.15054142 0.8851139 -0.44035295
          -0.036808677 0.5992371 0.799725 0.9171575 0.05653991 0.3944939
          0.18781473 0.058815274 0.9804419 0.6845384 0.57692873 -0.44560117
          0.94167197 0.24245305 0.23338902 -0.53218937 -0.1671944 -0.8299521
          -0.53553677 0.75897026 0.37035728 0.69950324 0.65350366 0.28918546
          0.024593549 -0.97377354 0.22618638 -0.08561647 0.3857932 0.9186041
          0.3607887 0.654867 0.6640638 0.8303447 0.38491228 -0.4029519
          0.6275654 0.17838383 0.7578528 -0.9630074 -0.23344105 0.1346182
          -0.14806916 -0.50153244 -0.8523736 -0.66616356 0.6089251 -0.43062317
          -0.93511635 -0.1304616 -0.3294498 -0.2600539 0.77495897 0.57603
          0.09274388 0.7164339 0.691463 0.059623297 0.94235736 0.32925317
          0.18364514 0.8678059 -0.4617222 0.06497125 0.677862 0.7323127
          -0.009789625 0.7441131 0.6679819 0.025621455 0.9886989 0.14770919
          -0.17524791 0.92481834 0.33763763 -0.005625421 0.53760475 0.8431782
          0.12147222 0.45999858 0.8795714 0.84747064 0.022497684 -0.5303653
          -0.096624665 -0.45201817 0.88676 -0.5035834 0.16721064 -0.847611
          -0.8677533 0.24410808 -0.43291506 0.21881996 0.95545447 -0.19805184
          -0.9024218 -0.31624314 -0.2926178 0.108901545 0.12778828 0.98580456
          0.14241129 0.20049901 0.969288 0.3049151 -0.35933864 0.8819878
          0.35902375 -0.52869695 0.76914334 0.4835709 0.41677955 0.76971036
          -0.7887817 -0.0230339 0.6142417 -0.35288438 0.7210078 0.5963391
          0.9676381 0.24875939 -0.04237084 -0.6215616 0.7078401 -0.33559436
          -0.07559322 0.15657325 0.9847692 0.22009854 0.9742007 0.049895626
          -0.6845559 0.66954064 0.28826827 -0.73768294 -0.13667007 0.6611696
          -0.0162836 -0.4602813 0.8876238 0.38427636 -0.2520558 0.8881439
          0.99766773 -0.06436314 0.022727376 -0.7436642 -0.4260103 -0.5152463
          0.7102125 0.68785757 -0.14983357 0.21084514 0.8410679 0.4981456
          -0.13655587 0.9067437 0.3989591 -0.28044763 -0.93827164 0.20247342
          0.06069959 0.61195886 0.7885568 -0.7976871 -0.5805575 -0.16324303
          0.29761574 0.015101298 0.9545663 0.14524052 -0.22422467 0.96365374
          -0.95740587 0.05602402 0.2832585 0.19357084 -0.10277755 0.97568804
          -0.5247774 -0.224343 0.8211448 -0.19027278 -0.16201769 0.9682699
          0.33881828 -0.2223522 0.9142 -0.33401707 -0.15568878 0.92962015
          -0.50201964 -0.059151903 0.862831 0.93822396 0.3187277 0.1347163
          -0.52819276 0.76129484 0.37608853 -0.13613917 0.30735415 0.94180655
          0.2572672 0.55034363 0.79431444 -0.60378796 -0.17250413 0.77825606
          -0.78967565 0.52568 0.31634313 -0.20123675 0.9456187 -0.25555646
          0.08636993 0.93544924 -0.34274623 0.14091486 0.66373444 0.73457444
          0.112672776 -0.1591596 0.98080224 -0.9830769 0.18118307 0.027065568
          0.85996747 -0.47613257 -0.18372194 0.5165031 0.07900166 0.8526331
          -0.6372678 -0.7540496 0.15905638 0.2583105 -0.18405037 0.94836766
          -0.67122144 0.42347613 -0.6083829 0.13481805 -0.18904756 0.97266906
          0.3463648 -0.13916351 0.9277203 -0.7421441 0.16972551 0.64839447
          -0.46413013 0.174433 0.86842173 -0.1459315 0.76186115 0.63108766
          -0.35487607 0.9344053 0.030816197 -0.83597195 0.32031518 -0.4455884
          -0.78376836 -0.55948347 0.26960242 0.8036688 0.5859958 0.10356334
          0.14872035 -0.17490868 0.9732878 0.51210827 0.4390904 0.7382037
          -0.34145564 0.44699872 -0.8268012 -0.35778642 0.7535359 -0.5515184
          -0.57080674 -0.49917737 0.6519215 -0.05721508 -0.6267353 -0.7771289
          0.8709516 0.48531392 0.076900825 -0.20734599 -0.20104429 0.95738643
          0.11847985 -0.03660604 0.9922815 -0.8092098 0.24348137 -0.5346927
          -0.6325868 0.18416186 -0.75227547 0.09434213 0.68222725 -0.725028
          0.17127237 0.6325111 0.75537777 -0.4965438 0.4650078 -0.73294747
          -0.740192 -0.60990655 -0.2830721 0.06850208 -0.17519806 0.9821472
          -0.5699097 0.15427154 -0.8070956 -0.28972626 0.031529635 -0.95659006
          -0.113354445 -0.039789297 -0.99275756 -0.83183664 -0.12381061 -0.54103494
          -0.9806154 0.19565073 0.010688834 -0.30487582 0.03159834 -0.95186776
          0.046559587 0.4155315 -0.90838635 -0.29535797 -0.06733691 -0.9530107
          -0.10409332 -0.9939231 0.03579674 0.2506036 0.28636593 -0.9247661
          -0.08518273 -0.10511206 0.9908054 0.21166216 -0.033074785 0.9767831
          0.73798805 -0.17955542 0.6504871 -0.95311826 0.22183993 0.20579761
          0.6184803 0.2715737 -0.7373804 0.112777784 0.27613938 -0.95447797
          -0.26727405 -0.16332234 0.9496791 0.14977671 0.75709534 -0.6359038
          -0.9455775 -0.04726246 0.32194632 -0.66806406 0.47899556 -0.56943274
          -0.034121357 -0.3965391 0.9173835 -0.2694991 0.6488295 -0.7116112
          -0.39332667 -0.8134342 0.42850786 0.014789636 -0.41497084 0.9097145
          0.25091296 0.309189 -0.917303 -0.16681468 -0.94386595 -0.28511384
          -0.75855047 -0.6486215 0.06238118 0.020327115 -0.086428456 0.99605066
          0.7474832 0.6000861 0.28489566 -0.42438504 -0.8980052 0.116120726
          -0.7361846 -0.54447806 -0.40196505 -0.7225982 0.59056467 -0.3592844
          0.98285645 0.16939436 0.072792806 -0.9711035 0.018333245 0.2379535
          0.045656264 -0.09026767 0.9948705 -0.34037212 0.21712895 0.9148781
          0.017012836 0.10051392 0.9947902 -0.31853464 -0.14086212 0.9373866
          0.17058873 -0.048385095 0.9841536 -0.9631894 0.23204648 0.13572235
          0.075625315 -0.70422834 0.70593435 -0.0013042396 0.18224478 0.98325235
          -0.93885714 0.13482253 -0.3168124 0.1385777 0.12908609 0.9819027
          -0.66922885 0.17017308 -0.72330755 0.9674069 0.19931796 0.15619291
          -0.2652377 0.057200056 0.9624849 -0.14892802 -0.19063151 0.97029895
          0.0061003854 0.9677007 0.25202793 -0.044307258 0.31461284 0.94818544
          0.1967536 0.24522741 0.94929004 -0.25007173 0.8529344 -0.45822155
          -0.45134228 0.27060425 0.8503314 -0.86149925 -0.001150593 -0.5077575
          -0.11971179 0.009515146 0.9927631 -0.8039487 -0.5945306 0.014139874
          -0.073382065 0.6367076 -0.76760566 -0.37361214 0.61879605 0.6910177
          0.41657037 0.1537154 0.8960138 0.31705594 0.42124963 0.8497201
          -0.3922362 -0.1627589 -0.9053509 -0.13824691 0.60222656 -0.78626394
          -0.6956139 -0.032097656 -0.71769845 -0.23000304 0.24415135 0.9420662
          0.2522914 0.20908014 0.9447934 0.8287626 -0.13417359 0.5432771
          0.012665109 0.2929473 0.9560447 0.110438325 0.22512004 0.96805185
          0.25385353 0.44557825 0.8584978 -0.16747998 0.3571255 0.91891885
          0.11843554 0.706606 0.6976253 0.96627414 0.21275797 0.14508057
          -0.9207103 0.3640607 -0.14054301 -0.08073472 0.16263789 0.9833773
          0.25091296 0.309189 -0.917303 -0.079126194 -0.912789 0.40069354
          -0.1599591 0.15131685 -0.97545695 -0.15439102 0.38796973 0.90864897
          -0.4863963 -0.57126975 0.6611123 -0.23833428 -0.47011718 -0.84981567
          0.025019776 0.5205453 0.8534674 0.09062343 0.48243055 0.8712337
          0.30915007 -0.3481081 0.88501245 0.110009365 0.495031 0.861883
          0.6493969 0.34139422 -0.6795099 0.010078679 0.277534 0.96066296
          0.2904055 -0.44109973 0.8491735 0.06146411 0.5810531 0.81154144
          0.010993533 0.65232974 -0.7578556 0.39990303 0.21335302 -0.8913799
          -0.78789026 0.3343563 -0.517141 0.96472996 -0.25102112 -0.07927497
          -0.84615815 -0.5175939 -0.12693644 -0.9143667 0.39149576 -0.10326926
          -0.1892551 -0.5802966 -0.7921101 0.17605989 -0.7487393 0.63905585
          0.16013241 0.008567766 0.98705834 0.6820714 -0.32269695 0.6562357
          0.49372712 -0.08528325 0.86542493 0.5378237 0.4034548 0.7402499
          0.7343763 0.31329313 0.60211194 -0.36952674 0.17362423 -0.9128552
          -0.12060864 0.80677575 0.5784172 0.2348727 0.26224712 0.93598145
          0.4252841 -0.54578155 0.7219806 0.58251756 -0.71248865 0.39119455
          0.95327544 0.11090699 -0.28100815 0.80152595 0.26269525 0.53716606
          0.31988543 0.58234036 0.74736404 0.605599 -0.33157846 0.7233987
          0.4571188 -0.88604486 -0.07724594 0.1604019 -0.73883504 0.6545181
          0.6684815 0.31151354 0.67534566 0.77388704 -0.025365897 0.6328155
          0.6829983 -0.2794592 0.6748451 -0.34893358 0.23155835 -0.9080893
          0.5835687 -0.63348836 0.5080749 0.8231648 0.32319823 0.46684322
          0.80612683 0.43657523 0.3994516 0.2996799 -0.7851976 0.541901
          0.18615206 0.7393392 0.64708966 0.48863384 -0.31027383 0.81545514
          0.6526049 -0.2554162 0.71335083 0.86738986 -0.35979015 0.3437818
          -0.7438592 -0.3436456 0.57322 0.3929331 -0.91266346 -0.11246776
          0.6818419 -0.25172818 0.686822 0.33154666 0.4525149 0.82783276
          0.5816382 -0.100299284 0.80724037 0.7516768 0.31213933 0.58099145
          0.9652497 0.16838558 0.19984801 0.5115724 -0.1230867 0.85037833
          0.6374881 -0.12826216 0.75970894 -0.121739216 0.7466614 0.65396965
          0.76152366 -0.02799104 0.6475324 0.6103273 -0.08960437 0.7870652
          -0.85555506 -0.51542753 0.04857927 0.99254954 0.075715296 0.09545969
          0.40523803 0.02404963 0.91389483 0.66858125 -0.031176664 0.7429853
          -0.8140968 -0.026049476 -0.5801446 0.14211668 0.18345962 -0.97270006
          -0.9396994 0.33916184 0.04398013 -0.30138403 -0.90260696 0.30735707
          0.92727417 0.36275125 -0.09259673 -0.8512693 0.106617376 -0.51378334
          0.21546634 -0.96712446 -0.1350723 0.5675047 -0.4549454 -0.68626755
          -0.83224267 -0.53844184 -0.13210788 0.5346504 -0.8002211 -0.2716526
          0.47729483 -0.46087006 -0.7481901 0.31363836 -0.7546795 -0.5762723
          0.3885952 -0.64391553 -0.65906495 -0.06901417 0.82744026 -0.55729675
          0.25091296 0.309189 -0.917303 0.58856505 -0.78996676 0.17188282
          0.13901298 0.71445644 -0.6857313 0.4183154 -0.5558947 -0.71832675
          0.65309215 -0.70385283 -0.2793954 0.82856745 -0.5436614 -0.1338218
          0.7354965 -0.51566947 -0.4394654 0.15896504 0.4637195 -0.87160444
          0.63985825 0.19512604 -0.7433083 0.84033287 -0.1471026 -0.5217293
          -0.050416548 0.32400754 -0.94471014 0.45821634 -0.523876 -0.71804714
          -0.055282257 0.4124373 -0.90930706 0.8684507 0.28281865 -0.407194
          -0.34877893 0.18292819 -0.91917926 -0.19283146 0.84298706 -0.5021841
          0.4586163 0.74777967 -0.48010066 -0.8571211 0.29537436 -0.4220159
          -0.26266623 -0.9117981 -0.31564325 -0.5526142 -0.58782274 -0.5908316
          0.44312072 0.5250993 -0.72657746 0.99253404 -0.013044595 -0.12126822
          -0.018073278 0.4824155 -0.875756 0.76822513 -0.36423382 -0.52646357
          0.7870019 -0.29427737 -0.54224426 0.07479604 0.6148764 -0.7850685
          -0.8884877 -0.43988684 0.13072576 0.11076006 -0.27845624 -0.95404106
          0.8665772 -0.25476906 -0.42911148 0.5178862 -0.26733115 -0.8126056
          -0.21122137 0.38973114 -0.89637893 0.405728 0.2805521 -0.86987084
          0.022634441 0.8777479 -0.47858784 0.7032164 -0.1698462 -0.69039047
          0.83929616 -0.109232165 -0.53258824 0.07998994 0.31307682 -0.94635326
          0.403032 -0.6419923 -0.65223545 0.84986824 0.5268954 0.010260154
          0.49401152 0.18197508 -0.8501986 0.6918911 -0.08550825 -0.71692055
          0.05652921 0.97311693 -0.22326638 0.9138561 -0.05727537 -0.40197834
          -0.88208956 0.22339018 0.41474667 0.5156948 -0.029271845 -0.85627216
          -0.7132137 -0.6109218 0.34365797 -0.835014 0.5266463 -0.15935923
          0.8759563 -0.062072597 -0.47838017 0.32769275 0.4907236 -0.80734617
          -0.30862188 -0.9449819 0.108451605 0.957297 0.0010180189 -0.28910434
          -0.4507505 0.78205824 -0.430359 -0.4838493 0.39039233 -0.783252
          0.0071991063 0.5097903 -0.8602686 -0.3497529 0.86146015 -0.36818382
          0.54315317 0.7909612 0.28171787 0.43588573 0.87891 -0.19370288
          -0.19980854 -0.5530993 0.80880016 -0.53116107 0.8469997 0.0214343
          0.31828785 0.8775722 0.3585526 -0.058864124 -0.9967508 0.054981098
          -0.8594398 0.33621687 -0.38512522 -0.86365795 0.4993324 -0.06900765
          -0.9304012 0.34704858 -0.11794432 -0.3993651 0.75879735 0.5145232
          -0.74627537 0.55285954 -0.37070122 -0.7337698 0.46554068 0.49482697
          -0.63804644 0.349208 0.6862584 -0.5387687 0.81984377 0.19386731
          -0.5115908 0.8099247 -0.28687426 -0.77505326 -0.031421162 0.63111424
          -0.8908549 -0.43450016 0.13261645 -0.622574 0.005937491 0.7825384
          -0.6518581 -0.3195647 0.6877205 -0.8208156 0.51469064 0.24769996
          -0.6780266 0.31414142 0.6645262 -0.9762327 0.12082898 0.17991687
          -0.49406022 0.7081087 0.50446653 -0.88179094 -0.19672869 0.428652
          -0.87947345 0.22362703 -0.4201398 -0.7448978 0.11937549 0.65641207
          -0.32152587 -0.9399771 -0.11429864 -0.7003568 -0.32862744 0.63364375
          -0.55775315 0.39616904 -0.7293569 -0.7710425 0.4774655 -0.4213314
          -0.570683 0.42244804 -0.70417225 -0.8470886 0.43701705 -0.30241865
          -0.6791583 0.69108695 -0.24727093 -0.5399188 0.12291673 -0.83269393
          -0.020781426 -0.11921401 -0.99265105 -0.70511454 0.62361 -0.3375264
          -0.4757659 -0.27741593 -0.83467793 -0.27569637 0.8146252 -0.5102718
          -0.9341991 0.13628191 -0.3296957 -0.29565784 -0.8980331 -0.32576528
          -0.5657894 -0.26564616 -0.780586 -0.944292 0.006202602 -0.3290504
          -0.56490725 -0.34814858 -0.7481125 -0.12967019 -0.7702609 -0.62440675
          -0.7818696 0.28291738 -0.5555517 -0.2906356 0.4442647 -0.8474431
          -0.4264381 -0.7762702 -0.46427912 0.18161003 -0.3945383 -0.90075374
          -0.44925997 -0.89332587 0.011593577 -0.68746656 -0.7088089 -0.15804948
          -0.11735839 -0.39341548 -0.9118395 -0.59041315 -0.52559346 -0.61250615
          -0.84185153 -0.5095263 -0.17795776 -0.5913942 -0.22485304 -0.77439916
          -0.70318776 -0.5753066 -0.41779098 -0.7986232 -0.26805338 -0.5388398
          -0.3447777 0.13753103 -0.92855453 -0.93357265 -0.10312147 0.34323174
          -0.9236499 -0.18844458 -0.33370572 -0.30569732 0.18246019 -0.93448246
          -0.08839912 0.9098537 -0.40540335 0.18507896 0.7060584 -0.6835403
          -0.018313814 0.43865842 -0.89846724 -0.37761495 -0.40185726 -0.83421683
          0.211225 0.11228878 -0.97096616 0.32869646 -0.31197208 -0.8914214
          0.10348995 -0.21781938 -0.97048676 0.249793 -0.45091033 -0.8569033
          0.21788809 -0.31525126 -0.9236565 0.03231256 -0.5300379 -0.8473581
          0.17737535 -0.39205745 -0.9026788 -0.23946317 -0.37360242 -0.89614654
          -0.96017957 -0.2706223 -0.06941747 0.23418632 -0.24072132 -0.94191825
          0.14784253 -0.32600832 -0.9337351 0.46715927 -0.104873054 -0.8779316
          0.0021016556 -0.298264 -0.9544811 0.23629157 -0.1639506 -0.95775074
          0.136098 -0.18437837 -0.9733868 0.05699358 -0.54931307 -0.83367074
          0.32026297 -0.04955504 -0.9460317 0.20992255 -0.0995689 -0.97263485
          -0.12626323 -0.36951202 -0.9206077 -0.059209608 -0.6756068 -0.73488075
          -0.27534038 -0.20088738 -0.9401234 0.4405073 0.04148594 -0.89678997
          -0.37625352 -0.47743666 -0.79403245 0.36087495 0.035287987 -0.9319464
          -0.097041756 -0.29493257 -0.95057756 -0.16838107 -0.5526836 -0.81620383
          -0.026400885 0.056480285 -0.99805456 -0.05915634 -0.22123218 -0.9734253
          0.103018984 -0.91844314 -0.38190216 0.0039130566 -0.9996179 0.027363244
          0.037751164 -0.99917895 -0.014704721 0.045317363 -0.99853075 -0.029709578
          0.085083224 -0.9957891 0.034130126 -0.112161234 -0.6261956 0.7715562
          -0.28713617 -0.82271636 0.49060234 -0.119802654 -0.98975706 0.07764188
          0.047003668 -0.99888957 0.0032097623 -0.6807636 -0.69357646 -0.2356112
          -0.92430896 0.23888554 -0.29763502 0.5983668 -0.75213355 0.27613825
          -0.6724018 -0.7022327 -0.23397653 0.2417379 -0.9690621 -0.049814418
          0.01519157 -0.9997839 -0.014191332 0.0020557914 -0.9972102 0.07461598
          -0.048047334 -0.9984528 -0.027990695 0.5707878 -0.7633585 -0.30246505
          0.0935245 -0.9950805 0.032680202 0.09945423 -0.99477816 -0.022918086
          -0.03568136 -0.99719965 -0.06572463 0.35331813 -0.82571876 0.43972135
          -0.33022663 -0.9424889 0.051624186 0.032551426 -0.9854648 0.16673197
          0.058950484 -0.9974413 0.040443424 -0.19321334 -0.97876704 0.06843778
          0.5856241 -0.80651194 0.081135355 0.018052185 -0.9993123 -0.03238871
          -0.567647 -0.7972143 0.2054901 0.017438427 -0.9996617 0.019296804
          -0.45845172 -0.7586086 0.46296328 -0.020788213 -0.9994581 -0.025522618
          -0.015369254 -0.99866796 0.049255155 0.021389496 -0.9986651 0.047016673
          0.019243116 -0.99824435 0.05601774 0.62308943 -0.7474267 0.23046252
          0.20398535 -0.94269437 -0.26404047 0.026513023 -0.80455005 -0.5932927
          0.7048322 -0.561524 -0.43347707 -0.23714232 -0.6094359 -0.75653905
          0.28388235 -0.029786436 0.9583964 0.74442244 0.19284919 0.639253
          0.7379769 -0.6744069 0.02377974 0.68174326 0.014556636 0.7314466
          0.5266079 -0.6565747 0.53999424 0.3914515 -0.23072766 0.8908033
          -0.061766468 -0.035230238 0.99746865 -0.23404938 0.59293514 -0.7704861
          0.37089866 0.8565574 -0.35880858 0.18793622 0.9208874 0.3415353
          -0.700217 0.6901344 0.18278587 0.059294146 0.9666404 -0.24917959