<?xml version="1.0"?>
<VTKFile type="PolyData" version="0.1" byte_order="LittleEndian" header_type="UInt32" compressor="vtkZLibDataCompressor">
  <PolyData>
    <FieldData>
      <DataArray type="Float64" Name="Camera:ViewUp" NumberOfComponents="3" NumberOfTuples="1" format="ascii" RangeMin="1" RangeMax="1">
        0 1 0
        <InformationKey name="L2_NORM_RANGE" location="vtkDataArray" length="2">
          <Value index="0">
            1
          </Value>
          <Value index="1">
            1
          </Value>
        </InformationKey>
      </DataArray>
      <DataArray type="Float64" Name="Camera:Position" NumberOfComponents="3" NumberOfTuples="1" format="ascii" RangeMin="0.97855647615" RangeMax="0.97855647615">
        0.44295815919 0.51702744876 0.70288225434
        <InformationKey name="L2_NORM_RANGE" location="vtkDataArray" length="2">
          <Value index="0">
            0.97855647615
          </Value>
          <Value index="1">
            0.97855647615
          </Value>
        </InformationKey>
      </DataArray>
      <DataArray type="Float64" Name="Camera:FocalPoint" NumberOfComponents="3" NumberOfTuples="1" format="ascii" RangeMin="0.11824027192" RangeMax="0.11824027192">
        -0.095255989496 0.033604808152 0.061463609061
        <InformationKey name="L2_NORM_RANGE" location="vtkDataArray" length="2">
          <Value index="0">
            0.11824027192
          </Value>
          <Value index="1">
            0.11824027192
          </Value>
        </InformationKey>
      </DataArray>
      <DataArray type="Float64" Name="Camera:ClippingRange" NumberOfComponents="2" NumberOfTuples="1" format="ascii" RangeMin="1.4704288432" RangeMax="1.4704288432">
        0.7168694151 1.2838454832
        <InformationKey name="L2_NORM_RANGE" location="vtkDataArray" length="2">
          <Value index="0">
            1.4704288432
          </Value>
          <Value index="1">
            1.4704288432
          </Value>
        </InformationKey>
      </DataArray>
      <DataArray type="Float64" Name="Camera:ViewAngle" NumberOfTuples="1" format="ascii" RangeMin="30" RangeMax="30">
        30
      </DataArray>
      <DataArray type="Float64" Name="Property:Ambient" NumberOfTuples="1" format="ascii" RangeMin="0" RangeMax="0">
        0
      </DataArray>
      <DataArray type="Float64" Name="Property:AmbientColor" NumberOfComponents="3" NumberOfTuples="1" format="ascii" RangeMin="1.7320508076" RangeMax="1.7320508076">
        1 1 1
        <InformationKey name="L2_NORM_RANGE" location="vtkDataArray" length="2">
          <Value index="0">
            1.7320508076
          </Value>
          <Value index="1">
            1.7320508076
          </Value>
        </InformationKey>
      </DataArray>
      <DataArray type="Float64" Name="Property:Diffuse" NumberOfTuples="1" format="ascii" RangeMin="1" RangeMax="1">
        1
      </DataArray>
      <DataArray type="Float64" Name="Property:DiffuseColor" NumberOfComponents="3" NumberOfTuples="1" format="ascii" RangeMin="0.89768808959" RangeMax="0.89768808959">
        0.86274509804 0.078431372549 0.23529411765
        <InformationKey name="L2_NORM_RANGE" location="vtkDataArray" length="2">
          <Value index="0">
            0.89768808959
          </Value>
          <Value index="1">
            0.89768808959
          </Value>
        </InformationKey>
      </DataArray>
      <DataArray type="Float64" Name="Property:EdgeColor" NumberOfComponents="3" NumberOfTuples="1" format="ascii" RangeMin="1.2521231488" RangeMax="1.2521231488">
        0.89019607843 0.81176470588 0.34117647059
        <InformationKey name="L2_NORM_RANGE" location="vtkDataArray" length="2">
          <Value index="0">
            1.2521231488
          </Value>
          <Value index="1">
            1.2521231488
          </Value>
        </InformationKey>
      </DataArray>
      <DataArray type="Int32" Name="Property:EdgeVisibility" NumberOfTuples="1" format="ascii" RangeMin="1" RangeMax="1">
        1
      </DataArray>
      <DataArray type="Float64" Name="Property:VertexColor" NumberOfComponents="3" NumberOfTuples="1" format="ascii" RangeMin="1.2247448714" RangeMax="1.2247448714">
        0.5 1 0.5
        <InformationKey name="L2_NORM_RANGE" location="vtkDataArray" length="2">
          <Value index="0">
            1.2247448714
          </Value>
          <Value index="1">
            1.2247448714
          </Value>
        </InformationKey>
      </DataArray>
      <DataArray type="Int32" Name="Property:VertexVisibility" NumberOfTuples="1" format="ascii" RangeMin="0" RangeMax="0">
        0
      </DataArray>
      <DataArray type="Int32" Name="Property:Interpolation" NumberOfTuples="1" format="ascii" RangeMin="0" RangeMax="0">
        0
      </DataArray>
      <DataArray type="Float64" Name="Property:Opacity" NumberOfTuples="1" format="ascii" RangeMin="1" RangeMax="1">
        1
      </DataArray>
      <DataArray type="Int32" Name="Property:Representation" NumberOfTuples="1" format="ascii" RangeMin="2" RangeMax="2">
        2
      </DataArray>
      <DataArray type="Float64" Name="Property:Specular" NumberOfTuples="1" format="ascii" RangeMin="0.6" RangeMax="0.6">
        0.6
      </DataArray>
      <DataArray type="Float64" Name="Property:SpecularColor" NumberOfComponents="3" NumberOfTuples="1" format="ascii" RangeMin="1.7320508076" RangeMax="1.7320508076">
        1 1 1
        <InformationKey name="L2_NORM_RANGE" location="vtkDataArray" length="2">
          <Value index="0">
            1.7320508076
          </Value>
          <Value index="1">
            1.7320508076
          </Value>
        </InformationKey>
      </DataArray>
      <DataArray type="Float64" Name="Property:SpecularPower" NumberOfTuples="1" format="ascii" RangeMin="30" RangeMax="30">
        30
      </DataArray>
      <DataArray type="Int32" Name="Property:BackfaceCulling" NumberOfTuples="1" format="ascii" RangeMin="1" RangeMax="1">
        1
      </DataArray>
      <DataArray type="Int32" Name="Property:FrontfaceCulling" NumberOfTuples="1" format="ascii" RangeMin="0" RangeMax="0">
        0
      </DataArray>
      <DataArray type="Float64" Name="Property:PointSize" NumberOfTuples="1" format="ascii" RangeMin="1" RangeMax="1">
        1
      </DataArray>
      <DataArray type="Float64" Name="Property:LineWidth" NumberOfTuples="1" format="ascii" RangeMin="1" RangeMax="1">
        1
      </DataArray>
      <DataArray type="Int32" Name="Property:LineStipplePattern" NumberOfTuples="1" format="ascii" RangeMin="65535" RangeMax="65535">
        65535
      </DataArray>
      <DataArray type="Int32" Name="Property:LineStippleRepeatFactor" NumberOfTuples="1" format="ascii" RangeMin="1" RangeMax="1">
        1
      </DataArray>
      <DataArray type="Int32" Name="Property:Lighting" NumberOfTuples="1" format="ascii" RangeMin="1" RangeMax="1">
        1
      </DataArray>
      <DataArray type="Int32" Name="Property:RenderPointsAsSpheres" NumberOfTuples="1" format="ascii" RangeMin="0" RangeMax="0">
        0
      </DataArray>
      <DataArray type="Int32" Name="Property:RenderLinesAsTubes" NumberOfTuples="1" format="ascii" RangeMin="0" RangeMax="0">
        0
      </DataArray>
      <DataArray type="Int32" Name="Property:Shading" NumberOfTuples="1" format="ascii" RangeMin="0" RangeMax="0">
        0
      </DataArray>
      <DataArray type="Float64" Name="BackfaceProperty:Ambient" NumberOfTuples="1" format="ascii" RangeMin="0" RangeMax="0">
        0
      </DataArray>
      <DataArray type="Float64" Name="BackfaceProperty:AmbientColor" NumberOfComponents="3" NumberOfTuples="1" format="ascii" RangeMin="1.0295368738" RangeMax="1.0295368738">
        0.2 0.63137254902 0.78823529412
        <InformationKey name="L2_NORM_RANGE" location="vtkDataArray" length="2">
          <Value index="0">
            1.0295368738
          </Value>
          <Value index="1">
            1.0295368738
          </Value>
        </InformationKey>
      </DataArray>
      <DataArray type="Float64" Name="BackfaceProperty:Diffuse" NumberOfTuples="1" format="ascii" RangeMin="1" RangeMax="1">
        1
      </DataArray>
      <DataArray type="Float64" Name="BackfaceProperty:DiffuseColor" NumberOfComponents="3" NumberOfTuples="1" format="ascii" RangeMin="1.0295368738" RangeMax="1.0295368738">
        0.2 0.63137254902 0.78823529412
        <InformationKey name="L2_NORM_RANGE" location="vtkDataArray" length="2">
          <Value index="0">
            1.0295368738
          </Value>
          <Value index="1">
            1.0295368738
          </Value>
        </InformationKey>
      </DataArray>
      <DataArray type="Float64" Name="BackfaceProperty:EdgeColor" NumberOfComponents="3" NumberOfTuples="1" format="ascii" RangeMin="0" RangeMax="0">
        0 0 0
        <InformationKey name="L2_NORM_RANGE" location="vtkDataArray" length="2">
          <Value index="0">
            0
          </Value>
          <Value index="1">
            0
          </Value>
        </InformationKey>
      </DataArray>
      <DataArray type="Int32" Name="BackfaceProperty:EdgeVisibility" NumberOfTuples="1" format="ascii" RangeMin="0" RangeMax="0">
        0
      </DataArray>
      <DataArray type="Float64" Name="BackfaceProperty:VertexColor" NumberOfComponents="3" NumberOfTuples="1" format="ascii" RangeMin="1.2247448714" RangeMax="1.2247448714">
        0.5 1 0.5
        <InformationKey name="L2_NORM_RANGE" location="vtkDataArray" length="2">
          <Value index="0">
            1.2247448714
          </Value>
          <Value index="1">
            1.2247448714
          </Value>
        </InformationKey>
      </DataArray>
      <DataArray type="Int32" Name="BackfaceProperty:VertexVisibility" NumberOfTuples="1" format="ascii" RangeMin="0" RangeMax="0">
        0
      </DataArray>
      <DataArray type="Int32" Name="BackfaceProperty:Interpolation" NumberOfTuples="1" format="ascii" RangeMin="1" RangeMax="1">
        1
[...]
      <PointData Normals="Normals">
        <DataArray type="Float32" Name="Normals" NumberOfComponents="3" format="ascii" RangeMin="0.9999999605" RangeMax="1.0000000409">
          0.25428712368 0.94646656513 -0.19884432852 0.084035739303 0.80394631624 0.58873450756
          0.24335186183 0.96832889318 0.055847790092 0.8820759058 0.40409386158 -0.24217811227
          -0.98479795456 0.14273788035 0.098989591002 -0.052558552474 0.9799785018 -0.19204108417
          -0.22141973674 0.56612187624 0.79402726889 0.69450974464 0.67263573408 0.2553769052
          -0.35674911737 0.70692127943 0.61073100567 -0.62568086386 0.20930141211 -0.75147616863
          0.20981828868 0.89380675554 0.39634048939 0.54067158699 0.55990505219 0.62783801556
          0.25278404355 -0.92261260748 -0.29135242105 0.69132864475 0.33203059435 0.64173233509
          0.8664842248 0.44578316808 -0.22468298674 0.48013666272 0.83027487993 0.2830414176
          -0.1173723191 0.62595522404 0.77097588778 0.56582826376 0.21980436146 0.79468506575
          0.95456027985 0.10946524888 0.27718582749 0.76420611143 -0.1867570281 0.61734175682
          -0.92450964451 0.25580367446 -0.28257110715 0.50582879782 0.844817698 0.17441394925
          0.27754712105 0.051286872476 0.95934206247 -0.98204529285 0.1401181668 0.12630872428
          0.7070364356 0.37344416976 -0.60053223372 0.74772357941 0.22353307903 0.62525385618
          -0.29512453079 0.94078713655 0.16679644585 0.31054794788 -0.44815021753 0.83828479052
          0.47434175014 -0.37894883752 0.79460537434 -0.19975847006 0.97983062267 -0.0053379368037
          -0.73948276043 0.60948640108 0.28581732512 0.59107905626 0.70864784718 0.3852840066
          0.87472939491 0.48199144006 0.050326138735 0.7971534133 0.29112645984 -0.52895349264
          0.88207113743 0.39134788513 0.26229244471 0.096802420914 0.092303842306 -0.99101430178
          -0.28938660026 0.7180403471 0.63298767805 -0.99235516787 -0.02592436038 0.12066123635
          0.56609511375 -0.27854686975 0.77585303783 -0.94178563356 0.16878126562 -0.2907794416
          0.45551723242 0.38698714972 -0.80171376467 0.34780216217 0.44275438786 0.82643949986
          -0.33401510119 0.77969509363 0.52963149548 0.63508921862 -0.025337101892 0.77202314138
          -0.6331627965 0.11876686662 -0.7648524642 -0.54205715656 0.35685184598 -0.76080930233
          0.17988759279 0.38832452893 -0.90379452705 -0.021179335192 0.9948362112 0.099258750677
          0.061895258725 0.85415273905 0.51632553339 -0.34758573771 0.91760987043 0.19281160831
          -0.070980109274 0.69291394949 -0.71751797199 0.17210124433 0.52558022738 0.83315461874
          0.010767237283 0.29357656837 0.95587491989 -0.46856805682 0.79663413763 0.38186126947
          -0.97008758783 -0.19384804368 -0.14612686634 0.15054142475 0.88511389494 -0.44035294652
          -0.036808677018 0.59923708439 0.79972499609 0.91715747118 0.056539911777 0.39449390769
          0.18781472743 0.058815274388 0.98044192791 0.68453842402 0.57692873478 -0.44560116529
          0.94167196751 0.24245305359 0.23338901997 -0.5321893692 -0.16719439626 -0.82995212078
          -0.53553676605 0.75897026062 0.37035727501 0.69950324297 0.65350365639 0.28918546438
          0.024593548849 -0.97377353907 0.22618637979 -0.085616469383 0.38579320908 0.91860407591
          0.36078870296 0.65486699343 0.6640638113 0.83034467697 0.38491228223 -0.40295189619
          0.62756538391 0.17838382721 0.75785279274 -0.9630073905 -0.23344105482 0.13461819291
          -0.1480691582 -0.50153243542 -0.85237360001 -0.66616356373 0.60892510414 -0.43062317371
          -0.93511635065 -0.1304616034 -0.32944980264 -0.26005390286 0.77495896816 0.57603001595
          0.092743881047 0.71643388271 0.69146299362 0.059623297304 0.94235736132 0.32925316691
          0.1836451441 0.86780589819 -0.46172219515 0.064971253276 0.67786198854 0.73231267929
          -0.0097896251827 0.74411308765 0.66798192263 0.025621455163 0.98869889975 0.14770919085
          -0.17524790764 0.92481833696 0.33763763309 -0.0056254211813 0.5376047492 0.84317821264
          0.12147221714 0.45999857783 0.87957137823 0.84747064114 0.022497683764 -0.53036528826
          -0.096624664962 -0.45201817155 0.88675999641 -0.50358337164 0.16721063852 -0.84761101007
          -0.86775332689 0.24410808086 -0.43291506171 0.21881996095 0.95545446873 -0.19805184007
          -0.90242177248 -0.31624314189 -0.29261779785 0.10890154541 0.12778827548 0.9858045578
          0.1424112916 0.20049901307 0.96928799152 0.30491510034 -0.35933864117 0.88198781013
          0.35902374983 -0.52869695425 0.76914334297 0.48357090354 0.41677954793 0.76971036196
          -0.78878170252 -0.023033900186 0.61424171925 -0.35288438201 0.72100782394 0.59633910656
          0.96763807535 0.24875938892 -0.042370840907 -0.62156158686 0.70784008503 -0.33559435606
          -0.075593218207 0.15657325089 0.98476922512 0.22009854019 0.97420072556 0.049895625561
          -0.68455588818 0.66954064369 0.28826826811 -0.73768293858 -0.13667006791 0.66116958857
          -0.01628359966 -0.46028131247 0.88762378693 0.38427636027 -0.252055794 0.88814389706
          0.99766772985 -0.064363136888 0.02272737585 -0.74366420507 -0.42601031065 -0.51524627209
          0.71021252871 0.68785756826 -0.14983357489 0.2108451426 0.84106791019 0.49814561009
          -0.13655586541 0.90674370527 0.39895910025 -0.28044763207 -0.93827164173 0.20247341692
          0.06069958955 0.61195886135 0.78855681419 -0.79768711329 -0.58055752516 -0.16324302554
          0.29761573672 0.015101297759 0.95456629992 0.14524051547 -0.22422467172 0.96365374327
          -0.95740586519 0.056024018675 0.28325849771 0.19357083738 -0.10277754813 0.97568804026
          -0.52477741241 -0.22434300184 0.82114481926 -0.19027277827 -0.16201768816 0.96826988459
          0.33881828189 -0.22235220671 0.91420000792 -0.33401706815 -0.15568877757 0.92962014675
          -0.50201964378 -0.059151902795 0.86283099651 0.93822395802 0.3187277019 0.13471630216
          -0.52819275856 0.76129484177 0.37608852983 -0.13613916934 0.3073541522 0.94180655479
          0.25726720691 0.5503436327 0.79431444407 -0.60378795862 -0.17250412703 0.77825605869
          -0.78967565298 0.52568000555 0.31634312868 -0.20123675466 0.94561868906 -0.2555564642
          0.086369931698 0.93544924259 -0.34274622798 0.14091485739 0.66373443604 0.73457443714
          0.11267277598 -0.15915960073 0.98080223799 -0.98307687044 0.18118306994 0.027065567672
          0.85996747017 -0.4761325717 -0.18372194469 0.51650309563 0.079001657665 0.85263311863
          -0.63726782799 -0.75404959917 0.15905638039 0.25831049681 -0.18405036628 0.94836765528
          -0.67122143507 0.42347612977 -0.60838288069 0.13481804729 -0.1890475601 0.972669065
          0.34636479616 -0.13916350901 0.9277203083 -0.74214410782 0.1697255075 0.64839446545
          -0.46413013339 0.17443299294 0.86842173338 -0.14593149722 0.7618611455 0.63108766079
          -0.35487607121 0.93440532684 0.030816197395 -0.83597195148 0.32031518221 -0.4455884099
          -0.78376835585 -0.55948346853 0.26960241795 0.80366879702 0.58599579334 0.10356333852
          0.14872035384 -0.1749086827 0.97328782082 0.51210826635 0.43909040093 0.73820370436
          -0.34145563841 0.4469987154 -0.82680118084 -0.35778641701 0.75353592634 -0.55151838064
          -0.57080674171 -0.4991773665 0.6519215107 -0.057215079665 -0.62673532963 -0.77712887526
          0.87095159292 0.48531392217 0.076900824904 -0.20734599233 -0.20104429126 0.95738643408
          0.11847984791 -0.036606039852 0.99228149652 -0.80920982361 0.24348136783 -0.53469270468
          -0.63258677721 0.18416185677 -0.75227546692 0.094342127442 0.68222725391 -0.72502797842
          0.17127236724 0.63251107931 0.75537776947 -0.49654379487 0.46500781178 -0.73294746876
          -0.7401919961 -0.60990655422 -0.28307211399 0.068502083421 -0.17519806325 0.9821472168
          -0.56990969181 0.15427154303 -0.80709558725 -0.28972625732 0.031529635191 -0.95659005642
          -0.1133544445 -0.039789296687 -0.99275755882 -0.83183664083 -0.12381061167 -0.5410349369
          -0.98061537743 0.19565072656 0.010688833892 -0.30487582088 0.03159834072 -0.95186775923
          0.046559587121 0.41553148627 -0.90838634968 -0.29535797238 -0.067336909473 -0.95301067829
          -0.10409332067 -0.99392312765 0.035796739161 0.25060358644 0.28636592627 -0.92476612329
          -0.085182726383 -0.1051120609 0.9908053875 0.21166215837 -0.033074785024 0.97678309679
          0.73798805475 -0.17955541611 0.65048712492 -0.95311826468 0.22183993459 0.20579761267
          0.61848032475 0.27157369256 -0.7373803854 0.11277778447 0.27613937855 -0.95447796583
          -0.2672740519 -0.16332234442 0.94967907667 0.14977671206 0.75709533691 -0.63590377569
          -0.94557750225 -0.047262459993 0.32194632292 -0.66806405783 0.4789955616 -0.56943273544
          -0.034121356905 -0.39653909206 0.91738349199 -0.26949909329 0.64882951975 -0.7116112113
          -0.39332666993 -0.8134341836 0.42850786448 0.014789636247 -0.41497084498 0.90971451998
          0.25091296434 0.30918899179 -0.91730302572 -0.16681468487 -0.94386595488 -0.2851138413
          -0.75855046511 -0.64862149954 0.062381178141 0.020327115431 -0.086428456008 0.99605065584
          0.74748319387 0.60008609295 0.28489565849 -0.424385041 -0.89800518751 0.11612072587
          -0.73618459702 -0.54447805882 -0.40196505189 -0.72259819508 0.59056466818 -0.35928440094
          0.98285645247 0.16939435899 0.072792805731 -0.9711034894 0.018333245069 0.23795349896
          0.045656263828 -0.090267673135 0.99487048388 -0.34037211537 0.21712894738 0.91487807035
          0.017012836412 0.10051392019 0.99479019642 -0.31853464246 -0.14086212218 0.93738657236
          0.17058873177 -0.048385094851 0.98415362835 -0.96318942308 0.23204648495 0.13572235405
          0.075625315309 -0.70422834158 0.70593434572 -0.0013042396167 0.18224477768 0.98325234652
          -0.93885713816 0.13482253253 -0.31681239605 0.13857769966 0.12908609211 0.98190271854
          -0.6692288518 0.17017307878 -0.72330754995 0.96740692854 0.19931796193 0.15619291365
          -0.26523768902 0.057200055569 0.96248489618 -0.14892801642 -0.19063150883 0.9702989459
          0.0061003854498 0.96770071983 0.25202792883 -0.04430725798 0.31461283565 0.94818544388
          0.1967536062 0.24522741139 0.94929003716 -0.25007173419 0.85293442011 -0.45822155476
          -0.45134228468 0.27060425282 0.85033142567 -0.86149924994 -0.0011505930452 -0.50775748491
          -0.11971178651 0.0095151457936 0.99276310205 -0.80394870043 -0.59453058243 0.014139873907
          -0.0733820647 0.63670760393 -0.76760566235 -0.37361213565 0.61879605055 0.69101768732
          0.41657036543 0.15371540189 0.89601379633 0.31705594063 0.42124962807 0.84972012043
          -0.39223620296 -0.16275890172 -0.90535092354 -0.13824690878 0.60222655535 -0.78626394272
          -0.69561392069 -0.03209765628 -0.71769845486 -0.23000304401 0.24415135384 0.94206619263
          0.25229141116 0.20908014476 0.94479340315 0.82876259089 -0.13417358696 0.54327708483
          0.012665108778 0.29294729233 0.95604467392 0.11043832451 0.22512003779 0.9680518508
          0.25385352969 0.44557824731 0.85849779844 -0.16747997701 0.3571254909 0.91891884804
          0.11843553931 0.70660597086 0.69762527943 0.96627414227 0.21275797486 0.14508056641
          -0.92071032524 0.36406069994 -0.14054301381 -0.080734722316 0.16263788939 0.98337727785
          0.25091296434 0.30918899179 -0.91730302572 -0.079126194119 -0.91278898716 0.4006935358
          -0.15995909274 0.15131685138 -0.97545695305 -0.15439102054 0.38796973228 0.90864896774
          -0.48639631271 -0.5712697506 0.6611123085 -0.23833428323 -0.47011718154 -0.84981566668
          0.025019776076 0.52054530382 0.85346740484 0.090623430908 0.48243054748 0.87123370171
          0.30915006995 -0.34810811281 0.88501244783 0.11000936478 0.49503099918 0.86188298464
          0.64939689636 0.34139421582 -0.67950987816 0.010078678839 0.27753400803 0.96066296101
          0.29040551186 -0.44109973311 0.84917348623 0.061464108527 0.58105307817 0.8115414381
          0.010993532836 0.65232974291 -0.75785559416 0.3999030292 0.21335302293 -0.89137989283
          -0.78789025545 0.33435630798 -0.51714098454 0.96472996473 -0.25102111697 -0.079274967313
          -0.84615814686 -0.51759392023 -0.1269364357 -0.91436672211 0.39149576426 -0.10326925665
          -0.18925510347 -0.58029657602 -0.79211008549 0.17605988681 -0.74873930216 0.63905584812
          0.16013240814 0.0085677662864 0.9870583415 0.68207138777 -0.32269695401 0.65623569489
          0.49372711778 -0.085283249617 0.86542493105 0.53782367706 0.40345481038 0.74024987221
          0.7343763113 0.31329312921 0.60211193562 -0.36952674389 0.17362423241 -0.91285520792
          -0.1206086427 0.80677574873 0.57841718197 0.23487269878 0.26224711537 0.93598145247
          0.42528408766 -0.54578155279 0.72198057175 0.5825175643 -0.71248865128 0.39119455218
          0.95327544212 0.11090698838 -0.28100815415 0.80152595043 0.2626952529 0.53716605902
          0.31988543272 0.58234035969 0.74736404419 0.60559898615 -0.33157846332 0.72339868546
          0.45711880922 -0.88604485989 -0.077245943248 0.16040189564 -0.73883503675 0.65451812744
          0.66848152876 0.31151354313 0.67534565926 0.77388703823 -0.025365896523 0.63281548023
          0.6829982996 -0.27945920825 0.67484509945 -0.34893357754 0.23155835271 -0.90808928013
          0.58356869221 -0.63348835707 0.50807487965 0.82316482067 0.32319822907 0.46684321761
          0.80612683296 0.43657523394 0.39945161343 0.29967990518 -0.78519761562 0.54190099239
          0.18615205586 0.73933917284 0.64708966017 0.48863384128 -0.31027382612 0.81545513868
          0.65260487795 -0.25541621447 0.71335083246 0.86738985777 -0.35979014635 0.34378179908
          -0.74385917187 -0.34364560246 0.57322001457 0.39293310046 -0.91266345978 -0.11246775836
          0.68184190989 -0.25172817707 0.68682199717 0.33154666424 0.45251488686 0.82783275843
          0.58163821697 -0.10029928386 0.80724036694 0.75167679787 0.31213933229 0.58099144697
          0.96524971724 0.16838558018 0.19984801114 0.5115724206 -0.12308669835 0.85037833452
          0.63748812675 -0.12826216221 0.75970894098 -0.12173921615 0.74666142464 0.6539696455
          0.761523664 -0.027991039678 0.64753240347 0.61032730341 -0.089604370296 0.78706520796
          -0.85555505753 -0.51542752981 0.048579268157 0.99254953861 0.07571529597 0.09545969218
          0.40523803234 0.024049630389 0.91389483213 0.66858124733 -0.031176663935 0.74298530817
          -0.81409680843 -0.026049476117 -0.58014458418 0.14211668074 0.18345962465 -0.97270005941
          -0.93969941139 0.33916184306 0.043980129063 -0.30138403177 -0.90260696411 0.30735707283
          0.92727416754 0.3627512455 -0.09259673208 -0.85126930475 0.10661737621 -0.51378333569
          0.21546633542 -0.96712446213 -0.1350723058 0.567504704 -0.45494538546 -0.68626755476
          -0.83224266768 -0.53844183683 -0.13210788369 0.53465038538 -0.80022108555 -0.27165260911
          0.47729483247 -0.46087005734 -0.74819010496 0.31363835931 -0.75467950106 -0.57627230883
          0.38859519362 -0.64391553402 -0.65906494856 -0.069014169276 0.82744026184 -0.55729675293
          0.25091296434 0.30918899179 -0.91730302572 0.58856505156 -0.78996676207 0.17188282311
          0.13901297748 0.71445643902 -0.68573129177 0.41831541061 -0.55589467287 -0.71832674742
          0.65309214592 -0.70385283232 -0.27939540148 0.82856744528 -0.54366141558 -0.13382180035
          0.735496521 -0.51566946507 -0.43946540356 0.15896503627 0.46371948719 -0.8716044426
          0.63985824585 0.19512604177 -0.74330830574 0.84033286572 -0.14710259438 -0.52172929049
          -0.050416547805 0.32400754094 -0.94471013546 0.45821633935 -0.52387601137 -0.71804714203
          -0.055282257497 0.41243728995 -0.90930706263 0.86845070124 0.28281864524 -0.40719398856
          -0.34877893329 0.18292818964 -0.91917926073 -0.19283145666 0.84298706055 -0.502184093
          0.45861628652 0.74777966738 -0.48010066152 -0.85712110996 0.29537436366 -0.42201590538
          -0.26266622543 -0.91179811954 -0.31564325094 -0.55261421204 -0.58782273531 -0.59083157778
          0.443120718 0.5250992775 -0.72657746077 0.9925340414 -0.013044594787 -0.12126822025
          -0.018073277548 0.4824154973 -0.87575602531 0.76822513342 -0.36423382163 -0.52646356821
          0.78700190783 -0.29427736998 -0.54224425554 0.074796043336 0.6148763895 -0.78506851196
          -0.88848769665 -0.4398868382 0.13072575629 0.11076006293 -0.27845624089 -0.95404106379
          0.86657720804 -0.25476905704 -0.42911148071 0.51788622141 -0.26733115315 -0.81260561943
          -0.21122136712 0.38973113894 -0.89637893438 0.40572801232 0.28055208921 -0.8698708415
          0.022634441033 0.87774789333 -0.47858783603 0.70321637392 -0.1698462069 -0.69039046764
          0.83929616213 -0.10923216492 -0.53258824348 0.079989939928 0.31307682395 -0.9463532567
          0.40303200483 -0.64199227095 -0.65223544836 0.84986823797 0.52689540386 0.010260153562
          0.49401152134 0.18197508156 -0.85019862652 0.69189107418 -0.0855082497 -0.71692055464
          0.056529209018 0.9731169343 -0.22326637805 0.91385608912 -0.057275369763 -0.40197834373
          -0.88208955526 0.22339017689 0.41474667192 0.51569479704 -0.029271844774 -0.85627216101
          -0.71321368217 -0.61092180014 0.34365797043 -0.83501398563 0.52664631605 -0.15935923159
          0.87595629692 -0.062072597444 -0.47838017344 0.32769274712 0.49072360992 -0.80734616518
          -0.30862188339 -0.94498187304 0.10845160484 0.95729702711 0.0010180189274 -0.28910434246
          -0.45075049996 0.78205823898 -0.43035900593 -0.48384928703 0.39039233327 -0.78325200081
          0.0071991062723 0.50979030132 -0.86026859283 -0.34975290298 0.86146014929 -0.36818382144
          0.54315316677 0.79096120596 0.28171786666 0.43588572741 0.87891000509 -0.19370287657
          -0.19980853796 -0.55309927464 0.80880016088 -0.53116106987 0.84699970484 0.021434299648
          0.31828784943 0.87757217884 0.35855260491 -0.058864124119 -0.996750772 0.054981097579
          -0.85943979025 0.33621686697 -0.38512521982 -0.86365795135 0.49933239818 -0.069007650018
          -0.93040120602 0.34704858065 -0.11794432253 -0.39936509728 0.75879734755 0.51452320814
          -0.74627536535 0.55285954475 -0.37070122361 -0.73376977444 0.46554067731 0.49482697248
          -0.63804644346 0.34920799732 0.68625837564 -0.53876870871 0.81984376907 0.19386731088
          -0.51159077883 0.80992472172 -0.28687426448 -0.77505326271 -0.031421162188 0.63111424446
          -0.89085489511 -0.43450015783 0.13261644542 -0.62257397175 0.0059374910779 0.782538414
          -0.65185809135 -0.31956470013 0.68772047758 -0.82081562281 0.51469063759 0.24769996107
          -0.67802661657 0.31414142251 0.66452622414 -0.9762327075 0.12082897872 0.17991687357
          -0.49406021833 0.70810872316 0.50446653366 -0.88179093599 -0.19672869146 0.42865198851
          -0.8794734478 0.22362703085 -0.42013978958 -0.7448977828 0.11937548965 0.65641206503
          -0.32152587175 -0.93997710943 -0.11429864168 -0.70035678148 -0.32862743735 0.63364374638
          -0.55775314569 0.39616903663 -0.72935688496 -0.77104252577 0.47746551037 -0.42133140564
          -0.57068300247 0.42244803905 -0.70417225361 -0.84708857536 0.43701705337 -0.3024186492
          -0.67915827036 0.69108694792 -0.24727092683 -0.53991878033 0.12291672826 -0.83269393444
          -0.020781425759 -0.11921401322 -0.99265104532 -0.70511454344 0.62361001968 -0.33752641082
          -0.47576591372 -0.27741593122 -0.83467793465 -0.27569636703 0.81462520361 -0.51027178764
          -0.93419909477 0.13628190756 -0.3296957016 -0.29565784335 -0.89803308249 -0.32576528192